{
  "jid": "JVASP-10",
  "formula": "VSe2",
  "normalized_formula": "Se2V",
  "space_group": "P-3m1",
  "space_group_number": 0,
  "topological_class": "Unknown",
  "topological_binary": 1.0,
  "band_gap": 0.0,
  "formation_energy": null,
  "processing_timestamp": "2025-06-09T18:54:40.912379",
  "local_database_props": {
    "Formula": "Se2 V1",
    "Space Group": "164 (P-3m1)",
    "Property": "SM (ESFD)",
    "ICSD_ID": 652158,
    "POSCAR_link": "https://www.topologicalquantumchemistry.com/data/nonalloycompounds/SG-164/Mat-652158/POSCAR",
    "MatProject_link": "https://legacy.materialsproject.org/materials/icsd/652158",
    "Unnamed: 6": NaN
  },
  "file_locations": {
    "structure": "structures/JVASP-10.h5",
    "crystal_graph": "graphs/JVASP-10/crystal_graph.pt",
    "kspace_graph": "graphs/JVASP-10/kspace_graph.pt"
  }
}