{
  "jid": "JVASP-8",
  "formula": "Te2Mo",
  "normalized_formula": "MoTe2",
  "space_group": "Pnma",
  "space_group_number": 0,
  "topological_class": "Unknown",
  "topological_binary": 0.0,
  "band_gap": 0.0,
  "formation_energy": null,
  "processing_timestamp": "2025-06-09T18:54:35.714902",
  "local_database_props": {
    "Formula": "Mo1 Te2",
    "Space Group": "194 (P63/mmc)",
    "Property": "trivial (LCEBR)",
    "ICSD_ID": 674363,
    "POSCAR_link": "https://www.topologicalquantumchemistry.com/data/nonalloycompounds_theory/SG-194/Mat-674363/POSCAR",
    "MatProject_link": "https://legacy.materialsproject.org/materials/icsd/674363",
    "Unnamed: 6": NaN
  },
  "file_locations": {
    "structure": "structures/JVASP-8.h5",
    "crystal_graph": "graphs/JVASP-8/crystal_graph.pt",
    "kspace_graph": "graphs/JVASP-8/kspace_graph.pt"
  }
}