{
  "jid": "JVASP-5",
  "formula": "TiO2",
  "normalized_formula": "O2Ti",
  "space_group": "P4_2/mnm",
  "space_group_number": 0,
  "topological_class": "Unknown",
  "topological_binary": 0.0,
  "band_gap": 1.769,
  "formation_energy": null,
  "processing_timestamp": "2025-06-09T18:54:27.713896",
  "local_database_props": {
    "Formula": "O2 Ti1",
    "Space Group": "13 (P2/c)",
    "Property": "trivial (LCEBR)",
    "ICSD_ID": 671955,
    "POSCAR_link": "https://www.topologicalquantumchemistry.com/data/nonalloycompounds_theory/SG-13/Mat-671955/POSCAR",
    "MatProject_link": "https://legacy.materialsproject.org/materials/icsd/671955",
    "Unnamed: 6": NaN
  },
  "file_locations": {
    "structure": "structures/JVASP-5.h5",
    "crystal_graph": "graphs/JVASP-5/crystal_graph.pt",
    "kspace_graph": "graphs/JVASP-5/kspace_graph.pt"
  }
}