{
  "jid": "JVASP-8",
  "formula": "Te2Mo",
  "normalized_formula": "MoTe2",
  "target_label": 0.0,
  "num_atoms": 12,
  "num_edges": 48,
  "jarvis_props": {
    "formation_energy": null,
    "band_gap": 0.0,
    "space_group": "Pnma"
  }
}