{
  "jid": "JVASP-5",
  "formula": "TiO2",
  "normalized_formula": "O2Ti",
  "target_label": 0.0,
  "num_atoms": 6,
  "num_edges": 24,
  "jarvis_props": {
    "formation_energy": null,
    "band_gap": 1.769,
    "space_group": "P4_2/mnm"
  }
}