{
  "jid": "mp-1193944",
  "formula": "Tm2S3",
  "normalized_formula": "Tm2S3",
  "space_group": "P2_1/m",
  "space_group_number": 11,
  "topological_class": "Topological Insulator",
  "topological_binary": 1.0,
  "band_gap": 1.4546000000000001,
  "formation_energy": -2.365855609354169,
  "energy_above_hull": 0.015200905083332002,
  "density": 6.341236666266116,
  "volume": 681.9924606754194,
  "nsites": 30,
  "total_magnetization": 0.0,
  "magnetic_type": "NM",
  "theoretical": null,
  "stability": {
    "energy_above_hull": 0.015200905083332002,
    "formation_energy_per_atom": -2.365855609354169,
    "is_stable": true
  },
  "electronic_structure": {
    "band_gap": 1.4546000000000001,
    "is_metal": false,
    "is_gap_direct": true,
    "cbm": 4.6509,
    "vbm": 3.1963
  },
  "mechanical_properties": {
    "bulk_modulus": null,
    "shear_modulus": null
  },
  "processing_timestamp": "2025-06-10T23:37:01.956777",
  "local_database_props": {
    "Formula": "S3 Tm2",
    "Space Group": "11 (P21/m)",
    "Property": "TI (NLC)",
    "ICSD_ID": 260980,
    "POSCAR_link": "https://www.topologicalquantumchemistry.com/data/nonalloycompounds/SG-11/Mat-260980/POSCAR",
    "MatProject_link": "https://legacy.materialsproject.org/materials/icsd/260980",
    "Unnamed: 6": NaN
  },
  "num_atoms": 30,
  "file_locations": {
    "structure_hdf5": "structures/mp-1193944.h5",
    "point_cloud": "point_clouds/mp-1193944_asph.npy",
    "crystal_graph": "graphs/mp-1193944/crystal_graph.pkl",
    "kspace_graph_shared": "kspace_topology_graphs/SG_011/kspace_graph.pt",
    "vectorized_features_dir": "vectorized_features/mp-1193944"
  },
  "vectorized_methods": [
    "asph_features",
    "band_rep_features",
    "basic_properties",
    "structural_properties",
    "combined_features"
  ],
  "vectorized_feature_sizes": {
    "asph_features": 63,
    "band_rep_features": 4756,
    "basic_properties": 4,
    "structural_properties": 4,
    "combined_features": 4827
  }
}