{
  "jid": "mp-1179954",
  "formula": "PbWO4",
  "normalized_formula": "PbWO4",
  "space_group": "Unknown",
  "space_group_number": 14,
  "topological_class": "Unknown",
  "topological_binary": 0.0,
  "band_gap": 1.879,
  "formation_energy": -2.016313206249999,
  "energy_above_hull": 0.0,
  "density": 8.556848755222314,
  "volume": 353.21774788212804,
  "nsites": 24,
  "total_magnetization": 0.0,
  "magnetic_type": "Unknown",
  "theoretical": true,
  "stability": {
    "energy_above_hull": 0.0,
    "formation_energy_per_atom": -2.016313206249999,
    "is_stable": true
  },
  "electronic_structure": {
    "band_gap": 1.879,
    "is_metal": false,
    "is_gap_direct": null,
    "cbm": null,
    "vbm": null
  },
  "mechanical_properties": {
    "bulk_modulus": null,
    "shear_modulus": null,
    "elastic_tensor": null
  },
  "processing_timestamp": "2025-06-10T11:39:22.559861",
  "local_database_props": {},
  "num_atoms": 24,
  "file_locations": {
    "structure_hdf5": "structures/mp-1179954.h5",
    "poscar": "structures/mp-1179954_POSCAR",
    "point_cloud": "point_clouds/mp-1179954_asph.npy",
    "crystal_graph": "graphs/mp-1179954/crystal_graph.pt",
    "kspace_graph_reference": "kspace_graph_mp-1179954",
    "vectorized_features_dir": "vectorized_features/mp-1179954"
  },
  "vectorized_methods": [
    "asph_features",
    "basic_properties",
    "structural_properties",
    "combined_features"
  ],
  "vectorized_feature_sizes": {
    "asph_features": 128,
    "basic_properties": 4,
    "structural_properties": 3,
    "combined_features": 135
  }
}