{
  "jid": "mp-1691",
  "formula": "La2Ni3",
  "normalized_formula": "La2Ni3",
  "space_group": "Cmce",
  "space_group_number": 64,
  "topological_class": "Topological Insulator",
  "topological_binary": 1.0,
  "band_gap": 0.0,
  "formation_energy": -0.32717068999999904,
  "energy_above_hull": 0.009477530333334,
  "density": 7.968294616840958,
  "volume": 189.17572860839246,
  "nsites": 10,
  "total_magnetization": 4e-07,
  "magnetic_type": "NM",
  "theoretical": null,
  "stability": {
    "energy_above_hull": 0.009477530333334,
    "formation_energy_per_atom": -0.32717068999999904,
    "is_stable": true
  },
  "electronic_structure": {
    "band_gap": 0.0,
    "is_metal": true,
    "is_gap_direct": false,
    "cbm": null,
    "vbm": null
  },
  "mechanical_properties": {
    "bulk_modulus": null,
    "shear_modulus": null
  },
  "processing_timestamp": "2025-06-10T23:37:04.305359",
  "local_database_props": {
    "Formula": "La2 Ni3",
    "Space Group": "64 (Cmce)",
    "Property": "TI (SEBR)",
    "ICSD_ID": 450,
    "POSCAR_link": "https://www.topologicalquantumchemistry.com/data/nonalloycompounds/SG-64/Mat-450/POSCAR",
    "MatProject_link": "https://legacy.materialsproject.org/materials/icsd/450",
    "Unnamed: 6": NaN
  },
  "num_atoms": 10,
  "file_locations": {
    "structure_hdf5": "structures/mp-1691.h5",
    "point_cloud": "point_clouds/mp-1691_asph.npy",
    "crystal_graph": "graphs/mp-1691/crystal_graph.pkl",
    "kspace_graph_shared": "kspace_topology_graphs/SG_064/kspace_graph.pt",
    "vectorized_features_dir": "vectorized_features/mp-1691"
  },
  "vectorized_methods": [
    "asph_features",
    "band_rep_features",
    "basic_properties",
    "structural_properties",
    "combined_features"
  ],
  "vectorized_feature_sizes": {
    "asph_features": 63,
    "band_rep_features": 4756,
    "basic_properties": 4,
    "structural_properties": 4,
    "combined_features": 4827
  }
}