{
  "jid": "mp-1179954",
  "formula": "PbWO4",
  "normalized_formula": "PbWO4",
  "space_group": "Unknown",
  "space_group_number": 14,
  "topological_class": "Unknown",
  "topological_binary": 0.0,
  "band_gap": 1.879,
  "formation_energy": -2.016313206249999,
  "processing_timestamp": "2025-06-10T10:39:14.114266",
  "local_database_props": {},
  "num_atoms": 24,
  "file_locations": {
    "structure_hdf5": "structures/mp-1179954.h5",
    "poscar": "structures/mp-1179954_POSCAR",
    "point_cloud": "point_clouds/mp-1179954_asph.npy",
    "crystal_graph": "graphs/mp-1179954/crystal_graph.pt",
    "kspace_graph": "graphs/mp-1179954/kspace_graph.pt"
  }
}