{
  "jid": "mp-19824",
  "formula": "Ca(MnGe)2",
  "normalized_formula": "Ca(MnGe)2",
  "space_group": "I4/mmm",
  "space_group_number": 139,
  "topological_class": "Topological Insulator",
  "topological_binary": 1.0,
  "band_gap": 0.0,
  "formation_energy": -0.33838627717240904,
  "energy_above_hull": 0.0,
  "density": 5.064020546407274,
  "volume": 96.80998245256177,
  "nsites": 5,
  "total_magnetization": 7.6281587,
  "magnetic_type": "FM",
  "theoretical": null,
  "stability": {
    "energy_above_hull": 0.0,
    "formation_energy_per_atom": -0.33838627717240904,
    "is_stable": true
  },
  "electronic_structure": {
    "band_gap": 0.0,
    "is_metal": true,
    "is_gap_direct": false,
    "cbm": null,
    "vbm": null
  },
  "mechanical_properties": {
    "bulk_modulus": {
      "voigt": 80.57,
      "reuss": 79.955,
      "vrh": 80.263
    },
    "shear_modulus": {
      "voigt": 55.525,
      "reuss": 54.298,
      "vrh": 54.912
    }
  },
  "processing_timestamp": "2025-06-10T23:36:56.841348",
  "local_database_props": {
    "Formula": "Ca1 Ge2 Mn2",
    "Space Group": "139 (I4/mmm)",
    "Property": "TI (SEBR)",
    "ICSD_ID": 402,
    "POSCAR_link": "https://www.topologicalquantumchemistry.com/data/nonalloycompounds/SG-139/Mat-402/POSCAR",
    "MatProject_link": "https://legacy.materialsproject.org/materials/icsd/402",
    "Unnamed: 6": NaN
  },
  "num_atoms": 5,
  "file_locations": {
    "structure_hdf5": "structures/mp-19824.h5",
    "point_cloud": "point_clouds/mp-19824_asph.npy",
    "crystal_graph": "graphs/mp-19824/crystal_graph.pkl",
    "kspace_graph_shared": "kspace_topology_graphs/SG_139/kspace_graph.pt",
    "vectorized_features_dir": "vectorized_features/mp-19824"
  },
  "vectorized_methods": [
    "asph_features",
    "band_rep_features",
    "basic_properties",
    "structural_properties",
    "combined_features"
  ],
  "vectorized_feature_sizes": {
    "asph_features": 63,
    "band_rep_features": 4756,
    "basic_properties": 4,
    "structural_properties": 4,
    "combined_features": 4827
  }
}