{
  "jid": "mp-12286",
  "formula": "Sr2Ta2O7",
  "normalized_formula": "Sr2Ta2O7",
  "space_group": "Cmcm",
  "space_group_number": 63,
  "topological_class": "Trivial",
  "topological_binary": 0.0,
  "band_gap": 2.9098,
  "formation_energy": -3.499442949515151,
  "energy_above_hull": 1.038454545287947e-05,
  "density": 6.962880594445972,
  "volume": 309.61562534989,
  "nsites": 22,
  "total_magnetization": 0.0,
  "magnetic_type": "NM",
  "theoretical": null,
  "stability": {
    "energy_above_hull": 1.038454545287947e-05,
    "formation_energy_per_atom": -3.499442949515151,
    "is_stable": true
  },
  "electronic_structure": {
    "band_gap": 2.9098,
    "is_metal": false,
    "is_gap_direct": true,
    "cbm": 4.5669,
    "vbm": 1.6571
  },
  "mechanical_properties": {
    "bulk_modulus": null,
    "shear_modulus": null
  },
  "processing_timestamp": "2025-06-10T23:37:11.004024",
  "local_database_props": {
    "Formula": "O7 Sr2 Ta2",
    "Space Group": "36 (Cmc21)",
    "Property": "trivial (LCEBR)",
    "ICSD_ID": 16388,
    "POSCAR_link": "https://www.topologicalquantumchemistry.com/data/nonalloycompounds/SG-36/Mat-16388/POSCAR",
    "MatProject_link": "https://legacy.materialsproject.org/materials/icsd/16388",
    "Unnamed: 6": NaN
  },
  "num_atoms": 22,
  "file_locations": {
    "structure_hdf5": "structures/mp-12286.h5",
    "point_cloud": "point_clouds/mp-12286_asph.npy",
    "crystal_graph": "graphs/mp-12286/crystal_graph.pkl",
    "kspace_graph_shared": "kspace_topology_graphs/SG_063/kspace_graph.pt",
    "vectorized_features_dir": "vectorized_features/mp-12286"
  },
  "vectorized_methods": [
    "asph_features",
    "band_rep_features",
    "basic_properties",
    "structural_properties",
    "combined_features"
  ],
  "vectorized_feature_sizes": {
    "asph_features": 63,
    "band_rep_features": 4756,
    "basic_properties": 4,
    "structural_properties": 4,
    "combined_features": 4827
  }
}