{
  "jid": "mp-1179954",
  "formula": "PbWO4",
  "normalized_formula": "PbWO4",
  "space_group": "P2_1/c",
  "space_group_number": 14,
  "topological_class": "Unknown",
  "topological_binary": 0.0,
  "band_gap": 1.879,
  "formation_energy": -2.016313206249999,
  "energy_above_hull": 0.037827502916666006,
  "density": 8.556848755222314,
  "volume": 353.21774788212804,
  "nsites": 24,
  "total_magnetization": 0.0010082,
  "magnetic_type": "NM",
  "theoretical": null,
  "stability": {
    "energy_above_hull": 0.037827502916666006,
    "formation_energy_per_atom": -2.016313206249999,
    "is_stable": false
  },
  "electronic_structure": {
    "band_gap": 1.879,
    "is_metal": false,
    "is_gap_direct": false,
    "cbm": 5.1277,
    "vbm": 3.2487
  },
  "mechanical_properties": {
    "bulk_modulus": null,
    "shear_modulus": null
  },
  "processing_timestamp": "2025-06-10T16:29:49.426126",
  "local_database_props": {},
  "num_atoms": 24,
  "file_locations": {
    "structure_hdf5": "structures/mp-1179954.h5",
    "poscar": "structures/mp-1179954_POSCAR",
    "point_cloud": "point_clouds/mp-1179954_asph.npy",
    "crystal_graph": "graphs/mp-1179954/crystal_graph.pkl",
    "kspace_graph": "graphs/mp-1179954/kspace_graph.pkl",
    "vectorized_features_dir": "vectorized_features/mp-1179954"
  },
  "vectorized_methods": [
    "asph_features",
    "band_rep_features",
    "basic_properties",
    "structural_properties",
    "combined_features"
  ],
  "vectorized_feature_sizes": {
    "asph_features": 128,
    "band_rep_features": 100,
    "basic_properties": 4,
    "structural_properties": 4,
    "combined_features": 236
  }
}