{
  "jid": "mp-1192663",
  "formula": "Tl2CuPb(NO2)6",
  "normalized_formula": "Tl2CuPb(NO2)6",
  "space_group": "Unknown",
  "space_group_number": 202,
  "topological_class": "Unknown",
  "topological_binary": 0.0,
  "band_gap": 0.0,
  "formation_energy": -0.7919466962121221,
  "processing_timestamp": "2025-06-10T10:39:11.750877",
  "local_database_props": {},
  "num_atoms": 22,
  "file_locations": {
    "structure_hdf5": "structures/mp-1192663.h5",
    "poscar": "structures/mp-1192663_POSCAR",
    "point_cloud": "point_clouds/mp-1192663_asph.npy",
    "crystal_graph": "graphs/mp-1192663/crystal_graph.pt",
    "kspace_graph": "graphs/mp-1192663/kspace_graph.pt"
  }
}