{
  "jid": "mp-19374",
  "formula": "K2SrNi(NO2)6",
  "normalized_formula": "K2SrNi(NO2)6",
  "space_group": "Fm-3",
  "space_group_number": 202,
  "topological_class": "Semimetal",
  "topological_binary": 1.0,
  "band_gap": 2.1937,
  "formation_energy": -1.213852720772727,
  "energy_above_hull": 0.11352103397726601,
  "density": 2.704778202231011,
  "volume": 1229.1894475156296,
  "nsites": 88,
  "total_magnetization": 0.0009906,
  "magnetic_type": "AFM",
  "theoretical": null,
  "stability": {
    "energy_above_hull": 0.11352103397726601,
    "formation_energy_per_atom": -1.213852720772727,
    "is_stable": false
  },
  "electronic_structure": {
    "band_gap": 2.1937,
    "is_metal": false,
    "is_gap_direct": false,
    "cbm": 2.7854,
    "vbm": 0.5917
  },
  "mechanical_properties": {
    "bulk_modulus": null,
    "shear_modulus": null
  },
  "processing_timestamp": "2025-06-10T23:36:37.353794",
  "local_database_props": {
    "Formula": "K2 N6 Ni1 O12 Sr1",
    "Space Group": "202 (Fm-3)",
    "Property": "SM (ESFD)",
    "ICSD_ID": 179,
    "POSCAR_link": "https://www.topologicalquantumchemistry.com/data/nonalloycompounds/SG-202/Mat-179/POSCAR",
    "MatProject_link": "https://legacy.materialsproject.org/materials/icsd/179",
    "Unnamed: 6": NaN
  },
  "num_atoms": 88,
  "file_locations": {
    "structure_hdf5": "structures/mp-19374.h5",
    "point_cloud": "point_clouds/mp-19374_asph.npy",
    "crystal_graph": "graphs/mp-19374/crystal_graph.pkl",
    "kspace_graph_shared": "kspace_topology_graphs/SG_202/kspace_graph.pt",
    "vectorized_features_dir": "vectorized_features/mp-19374"
  },
  "vectorized_methods": [
    "asph_features",
    "band_rep_features",
    "basic_properties",
    "structural_properties",
    "combined_features"
  ],
  "vectorized_feature_sizes": {
    "asph_features": 63,
    "band_rep_features": 4756,
    "basic_properties": 4,
    "structural_properties": 4,
    "combined_features": 4827
  }
}