{
  "jid": "mp-1900",
  "formula": "CaAs3",
  "normalized_formula": "CaAs3",
  "space_group": "P-1",
  "space_group_number": 2,
  "topological_class": "Topological Insulator",
  "topological_binary": 1.0,
  "band_gap": 0.0,
  "formation_energy": -0.6725508368750001,
  "energy_above_hull": 0.0,
  "density": 4.683733353555127,
  "volume": 187.79114125867986,
  "nsites": 8,
  "total_magnetization": 0.0,
  "magnetic_type": "NM",
  "theoretical": null,
  "stability": {
    "energy_above_hull": 0.0,
    "formation_energy_per_atom": -0.6725508368750001,
    "is_stable": true
  },
  "electronic_structure": {
    "band_gap": 0.0,
    "is_metal": true,
    "is_gap_direct": false,
    "cbm": null,
    "vbm": null
  },
  "mechanical_properties": {
    "bulk_modulus": null,
    "shear_modulus": null
  },
  "processing_timestamp": "2025-06-10T23:36:39.485525",
  "local_database_props": {
    "Formula": "As3 Ca1",
    "Space Group": "2 (P-1)",
    "Property": "TI (NLC)",
    "ICSD_ID": 193,
    "POSCAR_link": "https://www.topologicalquantumchemistry.com/data/nonalloycompounds/SG-2/Mat-193/POSCAR",
    "MatProject_link": "https://legacy.materialsproject.org/materials/icsd/193",
    "Unnamed: 6": NaN
  },
  "num_atoms": 8,
  "file_locations": {
    "structure_hdf5": "structures/mp-1900.h5",
    "point_cloud": "point_clouds/mp-1900_asph.npy",
    "crystal_graph": "graphs/mp-1900/crystal_graph.pkl",
    "kspace_graph_shared": "kspace_topology_graphs/SG_002/kspace_graph.pt",
    "vectorized_features_dir": "vectorized_features/mp-1900"
  },
  "vectorized_methods": [
    "asph_features",
    "band_rep_features",
    "basic_properties",
    "structural_properties",
    "combined_features"
  ],
  "vectorized_feature_sizes": {
    "asph_features": 63,
    "band_rep_features": 4756,
    "basic_properties": 4,
    "structural_properties": 4,
    "combined_features": 4827
  }
}