{
  "jid": "mp-18989",
  "formula": "LaVO4",
  "normalized_formula": "LaVO4",
  "space_group": "P2_1/c",
  "space_group_number": 14,
  "topological_class": "Trivial",
  "topological_binary": 0.0,
  "band_gap": 3.5153,
  "formation_energy": -3.188956035416667,
  "energy_above_hull": 0.035601438749999,
  "density": 5.074092863298711,
  "volume": 332.290982199522,
  "nsites": 24,
  "total_magnetization": 1e-07,
  "magnetic_type": "NM",
  "theoretical": null,
  "stability": {
    "energy_above_hull": 0.035601438749999,
    "formation_energy_per_atom": -3.188956035416667,
    "is_stable": false
  },
  "electronic_structure": {
    "band_gap": 3.5153,
    "is_metal": false,
    "is_gap_direct": false,
    "cbm": 6.3437,
    "vbm": 2.8284000000000002
  },
  "mechanical_properties": {
    "bulk_modulus": null,
    "shear_modulus": null
  },
  "processing_timestamp": "2025-06-10T23:36:56.448446",
  "local_database_props": {
    "Formula": "La1 O4 V1",
    "Space Group": "141 (I41/amd)",
    "Property": "trivial (LCEBR)",
    "ICSD_ID": 411083,
    "POSCAR_link": "https://www.topologicalquantumchemistry.com/data/nonalloycompounds/SG-141/Mat-411083/POSCAR",
    "MatProject_link": "https://legacy.materialsproject.org/materials/icsd/411083",
    "Unnamed: 6": NaN
  },
  "num_atoms": 24,
  "file_locations": {
    "structure_hdf5": "structures/mp-18989.h5",
    "point_cloud": "point_clouds/mp-18989_asph.npy",
    "crystal_graph": "graphs/mp-18989/crystal_graph.pkl",
    "kspace_graph_shared": "kspace_topology_graphs/SG_014/kspace_graph.pt",
    "vectorized_features_dir": "vectorized_features/mp-18989"
  },
  "vectorized_methods": [
    "asph_features",
    "band_rep_features",
    "basic_properties",
    "structural_properties",
    "combined_features"
  ],
  "vectorized_feature_sizes": {
    "asph_features": 63,
    "band_rep_features": 4756,
    "basic_properties": 4,
    "structural_properties": 4,
    "combined_features": 4827
  }
}