{
  "jid": "mp-12271",
  "formula": "MgSeO3",
  "normalized_formula": "MgSeO3",
  "space_group": "Pnma",
  "space_group_number": 62,
  "topological_class": "Trivial",
  "topological_binary": 0.0,
  "band_gap": 4.0013,
  "formation_energy": -2.024735936468753,
  "energy_above_hull": 0.0,
  "density": 4.425838297097966,
  "volume": 227.0109625140416,
  "nsites": 20,
  "total_magnetization": 0.0,
  "magnetic_type": "NM",
  "theoretical": null,
  "stability": {
    "energy_above_hull": 0.0,
    "formation_energy_per_atom": -2.024735936468753,
    "is_stable": true
  },
  "electronic_structure": {
    "band_gap": 4.0013,
    "is_metal": false,
    "is_gap_direct": false,
    "cbm": 7.2216000000000005,
    "vbm": 3.2203
  },
  "mechanical_properties": {
    "bulk_modulus": null,
    "shear_modulus": null
  },
  "processing_timestamp": "2025-06-10T23:37:08.299496",
  "local_database_props": {
    "Formula": "Mg1 O3 Se1",
    "Space Group": "62 (Pnma)",
    "Property": "trivial (LCEBR)",
    "ICSD_ID": 494,
    "POSCAR_link": "https://www.topologicalquantumchemistry.com/data/nonalloycompounds/SG-62/Mat-494/POSCAR",
    "MatProject_link": "https://legacy.materialsproject.org/materials/icsd/494",
    "Unnamed: 6": NaN
  },
  "num_atoms": 20,
  "file_locations": {
    "structure_hdf5": "structures/mp-12271.h5",
    "point_cloud": "point_clouds/mp-12271_asph.npy",
    "crystal_graph": "graphs/mp-12271/crystal_graph.pkl",
    "kspace_graph_shared": "kspace_topology_graphs/SG_062/kspace_graph.pt",
    "vectorized_features_dir": "vectorized_features/mp-12271"
  },
  "vectorized_methods": [
    "asph_features",
    "band_rep_features",
    "basic_properties",
    "structural_properties",
    "combined_features"
  ],
  "vectorized_feature_sizes": {
    "asph_features": 63,
    "band_rep_features": 4756,
    "basic_properties": 4,
    "structural_properties": 4,
    "combined_features": 4827
  }
}