{
  "jid": "mp-27539",
  "formula": "La2ReO5",
  "normalized_formula": "La2ReO5",
  "space_group": "I4/m",
  "space_group_number": 87,
  "topological_class": "Trivial",
  "topological_binary": 0.0,
  "band_gap": 0.7077,
  "formation_energy": -3.26176853218751,
  "energy_above_hull": 0.0,
  "density": 7.487563275890076,
  "volume": 241.29560643390204,
  "nsites": 16,
  "total_magnetization": 0.0,
  "magnetic_type": "NM",
  "theoretical": null,
  "stability": {
    "energy_above_hull": 0.0,
    "formation_energy_per_atom": -3.26176853218751,
    "is_stable": true
  },
  "electronic_structure": {
    "band_gap": 0.7077,
    "is_metal": false,
    "is_gap_direct": false,
    "cbm": 6.7123,
    "vbm": 6.0046
  },
  "mechanical_properties": {
    "bulk_modulus": null,
    "shear_modulus": null
  },
  "processing_timestamp": "2025-06-10T23:36:15.785166",
  "local_database_props": {
    "Formula": "La4 O10 Re2",
    "Space Group": "87 (I4/m)",
    "Property": "trivial (LCEBR)",
    "ICSD_ID": 81,
    "POSCAR_link": "https://www.topologicalquantumchemistry.com/data/nonalloycompounds/SG-87/Mat-81/POSCAR",
    "MatProject_link": "https://legacy.materialsproject.org/materials/icsd/81",
    "Unnamed: 6": NaN
  },
  "num_atoms": 16,
  "file_locations": {
    "structure_hdf5": "structures/mp-27539.h5",
    "point_cloud": "point_clouds/mp-27539_asph.npy",
    "crystal_graph": "graphs/mp-27539/crystal_graph.pkl",
    "kspace_graph_shared": "kspace_topology_graphs/SG_087/kspace_graph.pt",
    "vectorized_features_dir": "vectorized_features/mp-27539"
  },
  "vectorized_methods": [
    "asph_features",
    "band_rep_features",
    "basic_properties",
    "structural_properties",
    "combined_features"
  ],
  "vectorized_feature_sizes": {
    "asph_features": 63,
    "band_rep_features": 4756,
    "basic_properties": 4,
    "structural_properties": 4,
    "combined_features": 4827
  }
}