{
  "jid": "mp-22679",
  "formula": "Ba(MnSn)2",
  "normalized_formula": "Ba(MnSn)2",
  "space_group": "I4/mmm",
  "space_group_number": 139,
  "topological_class": "Semimetal",
  "topological_binary": 1.0,
  "band_gap": 0.0,
  "formation_energy": -0.130072465172413,
  "energy_above_hull": 0.22050827482759003,
  "density": 6.015508372377901,
  "volume": 133.77681879998772,
  "nsites": 5,
  "total_magnetization": 7.7758705,
  "magnetic_type": "FM",
  "theoretical": null,
  "stability": {
    "energy_above_hull": 0.22050827482759003,
    "formation_energy_per_atom": -0.130072465172413,
    "is_stable": false
  },
  "electronic_structure": {
    "band_gap": 0.0,
    "is_metal": true,
    "is_gap_direct": false,
    "cbm": null,
    "vbm": null
  },
  "mechanical_properties": {
    "bulk_modulus": null,
    "shear_modulus": null
  },
  "processing_timestamp": "2025-06-10T23:36:58.014792",
  "local_database_props": {
    "Formula": "Ba1 Mn2 Sn2",
    "Space Group": "139 (I4/mmm)",
    "Property": "SM (ES)",
    "ICSD_ID": 405,
    "POSCAR_link": "https://www.topologicalquantumchemistry.com/data/nonalloycompounds/SG-139/Mat-405/POSCAR",
    "MatProject_link": "https://legacy.materialsproject.org/materials/icsd/405",
    "Unnamed: 6": NaN
  },
  "num_atoms": 5,
  "file_locations": {
    "structure_hdf5": "structures/mp-22679.h5",
    "point_cloud": "point_clouds/mp-22679_asph.npy",
    "crystal_graph": "graphs/mp-22679/crystal_graph.pkl",
    "kspace_graph_shared": "kspace_topology_graphs/SG_139/kspace_graph.pt",
    "vectorized_features_dir": "vectorized_features/mp-22679"
  },
  "vectorized_methods": [
    "asph_features",
    "band_rep_features",
    "basic_properties",
    "structural_properties",
    "combined_features"
  ],
  "vectorized_feature_sizes": {
    "asph_features": 63,
    "band_rep_features": 4756,
    "basic_properties": 4,
    "structural_properties": 4,
    "combined_features": 4827
  }
}