{
  "jid": "mp-27250",
  "formula": "CsTcO4",
  "normalized_formula": "CsTcO4",
  "space_group": "Pnma",
  "space_group_number": 62,
  "topological_class": "Trivial",
  "topological_binary": 0.0,
  "band_gap": 3.414399999999999,
  "formation_energy": -2.165791816192528,
  "energy_above_hull": 0.0,
  "density": 4.060407205202105,
  "volume": 482.41273723692234,
  "nsites": 24,
  "total_magnetization": 0.0,
  "magnetic_type": "NM",
  "theoretical": null,
  "stability": {
    "energy_above_hull": 0.0,
    "formation_energy_per_atom": -2.165791816192528,
    "is_stable": true
  },
  "electronic_structure": {
    "band_gap": 3.414399999999999,
    "is_metal": false,
    "is_gap_direct": false,
    "cbm": 1.662,
    "vbm": -1.7524000000000002
  },
  "mechanical_properties": {
    "bulk_modulus": null,
    "shear_modulus": null
  },
  "processing_timestamp": "2025-06-10T23:36:52.555708",
  "local_database_props": {
    "Formula": "Cs1 O4 Tc1",
    "Space Group": "62 (Pnma)",
    "Property": "trivial (LCEBR)",
    "ICSD_ID": 365,
    "POSCAR_link": "https://www.topologicalquantumchemistry.com/data/nonalloycompounds/SG-62/Mat-365/POSCAR",
    "MatProject_link": "https://legacy.materialsproject.org/materials/icsd/365",
    "Unnamed: 6": NaN
  },
  "num_atoms": 24,
  "file_locations": {
    "structure_hdf5": "structures/mp-27250.h5",
    "point_cloud": "point_clouds/mp-27250_asph.npy",
    "crystal_graph": "graphs/mp-27250/crystal_graph.pkl",
    "kspace_graph_shared": "kspace_topology_graphs/SG_062/kspace_graph.pt",
    "vectorized_features_dir": "vectorized_features/mp-27250"
  },
  "vectorized_methods": [
    "asph_features",
    "band_rep_features",
    "basic_properties",
    "structural_properties",
    "combined_features"
  ],
  "vectorized_feature_sizes": {
    "asph_features": 63,
    "band_rep_features": 4756,
    "basic_properties": 4,
    "structural_properties": 4,
    "combined_features": 4827
  }
}