{
  "jid": "mp-23643",
  "formula": "Cd5P3ClO12",
  "normalized_formula": "Cd5P3ClO12",
  "space_group": "P6_3/m",
  "space_group_number": 176,
  "topological_class": "Trivial",
  "topological_binary": 0.0,
  "band_gap": 2.1598,
  "formation_energy": -2.179083453520407,
  "energy_above_hull": 0.009987456726189,
  "density": 5.228840270114967,
  "volume": 560.4670524775648,
  "nsites": 42,
  "total_magnetization": 0.0070839,
  "magnetic_type": "NM",
  "theoretical": null,
  "stability": {
    "energy_above_hull": 0.009987456726189,
    "formation_energy_per_atom": -2.179083453520407,
    "is_stable": true
  },
  "electronic_structure": {
    "band_gap": 2.1598,
    "is_metal": false,
    "is_gap_direct": true,
    "cbm": 3.814,
    "vbm": 1.6542
  },
  "mechanical_properties": {
    "bulk_modulus": null,
    "shear_modulus": null
  },
  "processing_timestamp": "2025-06-10T23:36:28.216226",
  "local_database_props": {
    "Formula": "Cd5 Cl1 O12 P3",
    "Space Group": "176 (P63/m)",
    "Property": "trivial (LCEBR)",
    "ICSD_ID": 130,
    "POSCAR_link": "https://www.topologicalquantumchemistry.com/data/nonalloycompounds/SG-176/Mat-130/POSCAR",
    "MatProject_link": "https://legacy.materialsproject.org/materials/icsd/130",
    "Unnamed: 6": NaN
  },
  "num_atoms": 42,
  "file_locations": {
    "structure_hdf5": "structures/mp-23643.h5",
    "point_cloud": "point_clouds/mp-23643_asph.npy",
    "crystal_graph": "graphs/mp-23643/crystal_graph.pkl",
    "kspace_graph_shared": "kspace_topology_graphs/SG_176/kspace_graph.pt",
    "vectorized_features_dir": "vectorized_features/mp-23643"
  },
  "vectorized_methods": [
    "asph_features",
    "band_rep_features",
    "basic_properties",
    "structural_properties",
    "combined_features"
  ],
  "vectorized_feature_sizes": {
    "asph_features": 63,
    "band_rep_features": 4756,
    "basic_properties": 4,
    "structural_properties": 4,
    "combined_features": 4827
  }
}