{
  "jid": "mp-22667",
  "formula": "UFeS3",
  "normalized_formula": "UFeS3",
  "space_group": "Cmcm",
  "space_group_number": 63,
  "topological_class": "Topological Insulator",
  "topological_binary": 1.0,
  "band_gap": 0.0,
  "formation_energy": -1.241572883499998,
  "energy_above_hull": 0.109560473624997,
  "density": 7.756704764142548,
  "volume": 167.01026619328368,
  "nsites": 10,
  "total_magnetization": 4.0000608,
  "magnetic_type": "FM",
  "theoretical": null,
  "stability": {
    "energy_above_hull": 0.109560473624997,
    "formation_energy_per_atom": -1.241572883499998,
    "is_stable": false
  },
  "electronic_structure": {
    "band_gap": 0.0,
    "is_metal": true,
    "is_gap_direct": false,
    "cbm": null,
    "vbm": null
  },
  "mechanical_properties": {
    "bulk_modulus": null,
    "shear_modulus": null
  },
  "processing_timestamp": "2025-06-10T23:36:18.229235",
  "local_database_props": {
    "Formula": "Fe1 S3 U1",
    "Space Group": "63 (Cmcm)",
    "Property": "TI (NLC)",
    "ICSD_ID": 98,
    "POSCAR_link": "https://www.topologicalquantumchemistry.com/data/nonalloycompounds/SG-63/Mat-98/POSCAR",
    "MatProject_link": "https://legacy.materialsproject.org/materials/icsd/98",
    "Unnamed: 6": NaN
  },
  "num_atoms": 10,
  "file_locations": {
    "structure_hdf5": "structures/mp-22667.h5",
    "point_cloud": "point_clouds/mp-22667_asph.npy",
    "crystal_graph": "graphs/mp-22667/crystal_graph.pkl",
    "kspace_graph_shared": "kspace_topology_graphs/SG_063/kspace_graph.pt",
    "vectorized_features_dir": "vectorized_features/mp-22667"
  },
  "vectorized_methods": [
    "asph_features",
    "band_rep_features",
    "basic_properties",
    "structural_properties",
    "combined_features"
  ],
  "vectorized_feature_sizes": {
    "asph_features": 63,
    "band_rep_features": 4756,
    "basic_properties": 4,
    "structural_properties": 4,
    "combined_features": 4827
  }
}