{
  "jid": "mp-23273",
  "formula": "TeI",
  "normalized_formula": "TeI",
  "space_group": "P-1",
  "space_group_number": 2,
  "topological_class": "Trivial",
  "topological_binary": 0.0,
  "band_gap": 0.7793000000000001,
  "formation_energy": -0.264790724583333,
  "energy_above_hull": 0.006595532500000001,
  "density": 5.065798493919578,
  "volume": 667.4005933186443,
  "nsites": 16,
  "total_magnetization": 0.0,
  "magnetic_type": "NM",
  "theoretical": null,
  "stability": {
    "energy_above_hull": 0.006595532500000001,
    "formation_energy_per_atom": -0.264790724583333,
    "is_stable": true
  },
  "electronic_structure": {
    "band_gap": 0.7793000000000001,
    "is_metal": false,
    "is_gap_direct": true,
    "cbm": 3.2435,
    "vbm": 2.4642
  },
  "mechanical_properties": {
    "bulk_modulus": null,
    "shear_modulus": null
  },
  "processing_timestamp": "2025-06-10T23:36:22.957267",
  "local_database_props": {
    "Formula": "I4 Te4",
    "Space Group": "2 (P-1)",
    "Property": "trivial (LCEBR)",
    "ICSD_ID": 66641,
    "POSCAR_link": "https://www.topologicalquantumchemistry.com/data/nonalloycompounds/SG-2/Mat-66641/POSCAR",
    "MatProject_link": "https://legacy.materialsproject.org/materials/icsd/66641",
    "Unnamed: 6": NaN
  },
  "num_atoms": 16,
  "file_locations": {
    "structure_hdf5": "structures/mp-23273.h5",
    "point_cloud": "point_clouds/mp-23273_asph.npy",
    "crystal_graph": "graphs/mp-23273/crystal_graph.pkl",
    "kspace_graph_shared": "kspace_topology_graphs/SG_002/kspace_graph.pt",
    "vectorized_features_dir": "vectorized_features/mp-23273"
  },
  "vectorized_methods": [
    "asph_features",
    "band_rep_features",
    "basic_properties",
    "structural_properties",
    "combined_features"
  ],
  "vectorized_feature_sizes": {
    "asph_features": 63,
    "band_rep_features": 4756,
    "basic_properties": 4,
    "structural_properties": 4,
    "combined_features": 4827
  }
}