{
  "jid": "mp-2843",
  "formula": "SnF2",
  "normalized_formula": "SnF2",
  "space_group": "C2/c",
  "space_group_number": 15,
  "topological_class": "Trivial",
  "topological_binary": 0.0,
  "band_gap": 3.2704,
  "formation_energy": -2.375956695416668,
  "energy_above_hull": 0.0,
  "density": 5.020367680433202,
  "volume": 414.65930878890373,
  "nsites": 24,
  "total_magnetization": 0.0,
  "magnetic_type": "NM",
  "theoretical": null,
  "stability": {
    "energy_above_hull": 0.0,
    "formation_energy_per_atom": -2.375956695416668,
    "is_stable": true
  },
  "electronic_structure": {
    "band_gap": 3.2704,
    "is_metal": false,
    "is_gap_direct": true,
    "cbm": 4.9653,
    "vbm": 1.6949
  },
  "mechanical_properties": {
    "bulk_modulus": null,
    "shear_modulus": null
  },
  "processing_timestamp": "2025-06-10T23:36:47.526924",
  "local_database_props": {
    "Formula": "F2 Sn1",
    "Space Group": "92 (P41212)",
    "Property": "trivial (LCEBR)",
    "ICSD_ID": 14195,
    "POSCAR_link": "https://www.topologicalquantumchemistry.com/data/nonalloycompounds/SG-92/Mat-14195/POSCAR",
    "MatProject_link": "https://legacy.materialsproject.org/materials/icsd/14195",
    "Unnamed: 6": NaN
  },
  "num_atoms": 24,
  "file_locations": {
    "structure_hdf5": "structures/mp-2843.h5",
    "point_cloud": "point_clouds/mp-2843_asph.npy",
    "crystal_graph": "graphs/mp-2843/crystal_graph.pkl",
    "kspace_graph_shared": "kspace_topology_graphs/SG_015/kspace_graph.pt",
    "vectorized_features_dir": "vectorized_features/mp-2843"
  },
  "vectorized_methods": [
    "asph_features",
    "band_rep_features",
    "basic_properties",
    "structural_properties",
    "combined_features"
  ],
  "vectorized_feature_sizes": {
    "asph_features": 63,
    "band_rep_features": 4756,
    "basic_properties": 4,
    "structural_properties": 4,
    "combined_features": 4827
  }
}