{
  "jid": "mp-27529",
  "formula": "PI3",
  "normalized_formula": "PI3",
  "space_group": "P6_3",
  "space_group_number": 173,
  "topological_class": "Trivial",
  "topological_binary": 0.0,
  "band_gap": 2.2746,
  "formation_energy": -0.341758141160712,
  "energy_above_hull": 0.0,
  "density": 3.905252359286758,
  "volume": 350.1042029708565,
  "nsites": 8,
  "total_magnetization": 0.0,
  "magnetic_type": "NM",
  "theoretical": null,
  "stability": {
    "energy_above_hull": 0.0,
    "formation_energy_per_atom": -0.341758141160712,
    "is_stable": true
  },
  "electronic_structure": {
    "band_gap": 2.2746,
    "is_metal": false,
    "is_gap_direct": false,
    "cbm": 2.2928,
    "vbm": 0.0182
  },
  "mechanical_properties": {
    "bulk_modulus": null,
    "shear_modulus": null
  },
  "processing_timestamp": "2025-06-10T23:36:47.865762",
  "local_database_props": {
    "Formula": "I3 P1",
    "Space Group": "173 (P63)",
    "Property": "trivial (LCEBR)",
    "ICSD_ID": 311,
    "POSCAR_link": "https://www.topologicalquantumchemistry.com/data/nonalloycompounds/SG-173/Mat-311/POSCAR",
    "MatProject_link": "https://legacy.materialsproject.org/materials/icsd/311",
    "Unnamed: 6": NaN
  },
  "num_atoms": 8,
  "file_locations": {
    "structure_hdf5": "structures/mp-27529.h5",
    "point_cloud": "point_clouds/mp-27529_asph.npy",
    "crystal_graph": "graphs/mp-27529/crystal_graph.pkl",
    "kspace_graph_shared": "kspace_topology_graphs/SG_173/kspace_graph.pt",
    "vectorized_features_dir": "vectorized_features/mp-27529"
  },
  "vectorized_methods": [
    "asph_features",
    "band_rep_features",
    "basic_properties",
    "structural_properties",
    "combined_features"
  ],
  "vectorized_feature_sizes": {
    "asph_features": 63,
    "band_rep_features": 4756,
    "basic_properties": 4,
    "structural_properties": 4,
    "combined_features": 4827
  }
}