{
  "jid": "mp-21118",
  "formula": "Sr(MnGe)2",
  "normalized_formula": "Sr(MnGe)2",
  "space_group": "I4/mmm",
  "space_group_number": 139,
  "topological_class": "Topological Insulator",
  "topological_binary": 1.0,
  "band_gap": 0.0,
  "formation_energy": -0.295852211172414,
  "energy_above_hull": 0.009638510250002001,
  "density": 5.9264787440552,
  "volume": 96.04237408467047,
  "nsites": 5,
  "total_magnetization": 4.4323263,
  "magnetic_type": "FM",
  "theoretical": null,
  "stability": {
    "energy_above_hull": 0.009638510250002001,
    "formation_energy_per_atom": -0.295852211172414,
    "is_stable": true
  },
  "electronic_structure": {
    "band_gap": 0.0,
    "is_metal": true,
    "is_gap_direct": false,
    "cbm": null,
    "vbm": null
  },
  "mechanical_properties": {
    "bulk_modulus": null,
    "shear_modulus": null
  },
  "processing_timestamp": "2025-06-10T23:36:57.228591",
  "local_database_props": {
    "Formula": "Ge2 Mn2 Sr1",
    "Space Group": "139 (I4/mmm)",
    "Property": "TI (SEBR)",
    "ICSD_ID": 403,
    "POSCAR_link": "https://www.topologicalquantumchemistry.com/data/nonalloycompounds/SG-139/Mat-403/POSCAR",
    "MatProject_link": "https://legacy.materialsproject.org/materials/icsd/403",
    "Unnamed: 6": NaN
  },
  "num_atoms": 5,
  "file_locations": {
    "structure_hdf5": "structures/mp-21118.h5",
    "point_cloud": "point_clouds/mp-21118_asph.npy",
    "crystal_graph": "graphs/mp-21118/crystal_graph.pkl",
    "kspace_graph_shared": "kspace_topology_graphs/SG_139/kspace_graph.pt",
    "vectorized_features_dir": "vectorized_features/mp-21118"
  },
  "vectorized_methods": [
    "asph_features",
    "band_rep_features",
    "basic_properties",
    "structural_properties",
    "combined_features"
  ],
  "vectorized_feature_sizes": {
    "asph_features": 63,
    "band_rep_features": 4756,
    "basic_properties": 4,
    "structural_properties": 4,
    "combined_features": 4827
  }
}