{
  "jid": "mp-27505",
  "formula": "Fe3Sn2",
  "normalized_formula": "Fe3Sn2",
  "space_group": "R-3m",
  "space_group_number": 166,
  "topological_class": "Topological Insulator",
  "topological_binary": 1.0,
  "band_gap": 0.0,
  "formation_energy": -0.001731922999998,
  "energy_above_hull": 0.00044802300000000003,
  "density": 8.206722072127109,
  "volume": 163.87629355668224,
  "nsites": 10,
  "total_magnetization": 14.5582836,
  "magnetic_type": "FM",
  "theoretical": null,
  "stability": {
    "energy_above_hull": 0.00044802300000000003,
    "formation_energy_per_atom": -0.001731922999998,
    "is_stable": true
  },
  "electronic_structure": {
    "band_gap": 0.0,
    "is_metal": true,
    "is_gap_direct": false,
    "cbm": null,
    "vbm": null
  },
  "mechanical_properties": {
    "bulk_modulus": {
      "voigt": 111.067,
      "reuss": 106.528,
      "vrh": 108.798
    },
    "shear_modulus": {
      "voigt": 55.493,
      "reuss": 51.559,
      "vrh": 53.526
    }
  },
  "processing_timestamp": "2025-06-10T23:36:13.306506",
  "local_database_props": {
    "Formula": "Fe3 Sn2",
    "Space Group": "166 (R-3m)",
    "Property": "TI (SEBR)",
    "ICSD_ID": 71,
    "POSCAR_link": "https://www.topologicalquantumchemistry.com/data/nonalloycompounds/SG-166/Mat-71/POSCAR",
    "MatProject_link": "https://legacy.materialsproject.org/materials/icsd/71",
    "Unnamed: 6": NaN
  },
  "num_atoms": 10,
  "file_locations": {
    "structure_hdf5": "structures/mp-27505.h5",
    "point_cloud": "point_clouds/mp-27505_asph.npy",
    "crystal_graph": "graphs/mp-27505/crystal_graph.pkl",
    "kspace_graph_shared": "kspace_topology_graphs/SG_166/kspace_graph.pt",
    "vectorized_features_dir": "vectorized_features/mp-27505"
  },
  "vectorized_methods": [
    "asph_features",
    "band_rep_features",
    "basic_properties",
    "structural_properties",
    "combined_features"
  ],
  "vectorized_feature_sizes": {
    "asph_features": 63,
    "band_rep_features": 4756,
    "basic_properties": 4,
    "structural_properties": 4,
    "combined_features": 4827
  }
}