{
  "jid": "mp-2767129",
  "formula": "KGa2Cl7",
  "normalized_formula": "KGa2Cl7",
  "space_group": "Unknown",
  "space_group_number": 33,
  "topological_class": "Unknown",
  "topological_binary": 0.0,
  "band_gap": 4.9561,
  "formation_energy": -1.7557762807250001,
  "processing_timestamp": "2025-06-10T10:12:07.404775",
  "local_database_props": {},
  "num_atoms": 40,
  "file_locations": {
    "structure_hdf5": "structures/mp-2767129.h5",
    "poscar": "structures/mp-2767129_POSCAR",
    "point_cloud": "point_clouds/mp-2767129_asph.npy",
    "crystal_graph": "graphs/mp-2767129/crystal_graph.pt",
    "kspace_graph": "graphs/mp-2767129/kspace_graph.pt"
  }
}