{
  "jid": "mp-24350",
  "formula": "K2CoH8(CO5)2",
  "normalized_formula": "K2CoH8(CO5)2",
  "space_group": "P2_1/c",
  "space_group_number": 14,
  "topological_class": "Semimetal",
  "topological_binary": 1.0,
  "band_gap": 1.7805,
  "formation_energy": -1.5629499323695661,
  "energy_above_hull": 0.030206298478260004,
  "density": 2.220639965280453,
  "volume": 492.34809862898686,
  "nsites": 46,
  "total_magnetization": 1.998105499999999,
  "magnetic_type": "FM",
  "theoretical": null,
  "stability": {
    "energy_above_hull": 0.030206298478260004,
    "formation_energy_per_atom": -1.5629499323695661,
    "is_stable": false
  },
  "electronic_structure": {
    "band_gap": 1.7805,
    "is_metal": false,
    "is_gap_direct": false,
    "cbm": 1.675,
    "vbm": -0.10550000000000001
  },
  "mechanical_properties": {
    "bulk_modulus": null,
    "shear_modulus": null
  },
  "processing_timestamp": "2025-06-10T23:30:26.005673",
  "local_database_props": {
    "Formula": "C2 H8 Co1 K2 O10",
    "Space Group": "14 (P21/c)",
    "Property": "SM (ESFD)",
    "ICSD_ID": 17,
    "POSCAR_link": "https://www.topologicalquantumchemistry.com/data/nonalloycompounds/SG-14/Mat-17/POSCAR",
    "MatProject_link": "https://legacy.materialsproject.org/materials/icsd/17",
    "Unnamed: 6": NaN
  },
  "num_atoms": 46,
  "file_locations": {
    "structure_hdf5": "structures/mp-24350.h5",
    "poscar": "structures/mp-24350_POSCAR",
    "point_cloud": "point_clouds/mp-24350_asph.npy",
    "crystal_graph": "graphs/mp-24350/crystal_graph.pkl",
    "kspace_graph_shared": "kspace_topology_graphs/SG_014/kspace_graph.pt",
    "vectorized_features_dir": "vectorized_features/mp-24350"
  },
  "vectorized_methods": [
    "asph_features",
    "band_rep_features",
    "basic_properties",
    "structural_properties",
    "combined_features"
  ],
  "vectorized_feature_sizes": {
    "asph_features": 63,
    "band_rep_features": 4756,
    "basic_properties": 4,
    "structural_properties": 4,
    "combined_features": 4827
  }
}