{
  "jid": "mp-27655",
  "formula": "Te2I",
  "normalized_formula": "Te2I",
  "space_group": "Pnma",
  "space_group_number": 62,
  "topological_class": "Trivial",
  "topological_binary": 0.0,
  "band_gap": 0.6558,
  "formation_energy": -0.18489281527777301,
  "energy_above_hull": 0.0,
  "density": 5.354513667341664,
  "volume": 947.9843576867668,
  "nsites": 24,
  "total_magnetization": 0.0,
  "magnetic_type": "NM",
  "theoretical": null,
  "stability": {
    "energy_above_hull": 0.0,
    "formation_energy_per_atom": -0.18489281527777301,
    "is_stable": true
  },
  "electronic_structure": {
    "band_gap": 0.6558,
    "is_metal": false,
    "is_gap_direct": true,
    "cbm": 3.8805,
    "vbm": 3.2247
  },
  "mechanical_properties": {
    "bulk_modulus": null,
    "shear_modulus": null
  },
  "processing_timestamp": "2025-06-10T23:36:22.203430",
  "local_database_props": {
    "Formula": "I1 Te2",
    "Space Group": "62 (Pnma)",
    "Property": "trivial (LCEBR)",
    "ICSD_ID": 107,
    "POSCAR_link": "https://www.topologicalquantumchemistry.com/data/nonalloycompounds/SG-62/Mat-107/POSCAR",
    "MatProject_link": "https://legacy.materialsproject.org/materials/icsd/107",
    "Unnamed: 6": NaN
  },
  "num_atoms": 24,
  "file_locations": {
    "structure_hdf5": "structures/mp-27655.h5",
    "point_cloud": "point_clouds/mp-27655_asph.npy",
    "crystal_graph": "graphs/mp-27655/crystal_graph.pkl",
    "kspace_graph_shared": "kspace_topology_graphs/SG_062/kspace_graph.pt",
    "vectorized_features_dir": "vectorized_features/mp-27655"
  },
  "vectorized_methods": [
    "asph_features",
    "band_rep_features",
    "basic_properties",
    "structural_properties",
    "combined_features"
  ],
  "vectorized_feature_sizes": {
    "asph_features": 63,
    "band_rep_features": 4756,
    "basic_properties": 4,
    "structural_properties": 4,
    "combined_features": 4827
  }
}