{
  "jid": "mp-2275",
  "formula": "UF6",
  "normalized_formula": "UF6",
  "space_group": "Pnma",
  "space_group_number": 62,
  "topological_class": "Trivial",
  "topological_binary": 0.0,
  "band_gap": 2.7943000000000002,
  "formation_energy": -3.482456654642856,
  "energy_above_hull": 0.0,
  "density": 5.482936843457232,
  "volume": 426.4443418001122,
  "nsites": 28,
  "total_magnetization": 0.0,
  "magnetic_type": "NM",
  "theoretical": null,
  "stability": {
    "energy_above_hull": 0.0,
    "formation_energy_per_atom": -3.482456654642856,
    "is_stable": true
  },
  "electronic_structure": {
    "band_gap": 2.7943000000000002,
    "is_metal": false,
    "is_gap_direct": false,
    "cbm": -0.5898,
    "vbm": -3.3841
  },
  "mechanical_properties": {
    "bulk_modulus": {
      "voigt": 4.721,
      "reuss": 4.714,
      "vrh": 4.717
    },
    "shear_modulus": {
      "voigt": 2.8200000000000003,
      "reuss": 2.569,
      "vrh": 2.694
    }
  },
  "processing_timestamp": "2025-06-10T23:36:49.436104",
  "local_database_props": {
    "Formula": "F6 U1",
    "Space Group": "62 (Pnma)",
    "Property": "trivial (LCEBR)",
    "ICSD_ID": 322,
    "POSCAR_link": "https://www.topologicalquantumchemistry.com/data/nonalloycompounds/SG-62/Mat-322/POSCAR",
    "MatProject_link": "https://legacy.materialsproject.org/materials/icsd/322",
    "Unnamed: 6": NaN
  },
  "num_atoms": 28,
  "file_locations": {
    "structure_hdf5": "structures/mp-2275.h5",
    "point_cloud": "point_clouds/mp-2275_asph.npy",
    "crystal_graph": "graphs/mp-2275/crystal_graph.pkl",
    "kspace_graph_shared": "kspace_topology_graphs/SG_062/kspace_graph.pt",
    "vectorized_features_dir": "vectorized_features/mp-2275"
  },
  "vectorized_methods": [
    "asph_features",
    "band_rep_features",
    "basic_properties",
    "structural_properties",
    "combined_features"
  ],
  "vectorized_feature_sizes": {
    "asph_features": 63,
    "band_rep_features": 4756,
    "basic_properties": 4,
    "structural_properties": 4,
    "combined_features": 4827
  }
}