{
  "jid": "mp-22172",
  "formula": "UCr2O6",
  "normalized_formula": "UCr2O6",
  "space_group": "P-31m",
  "space_group_number": 162,
  "topological_class": "Topological Insulator",
  "topological_binary": 1.0,
  "band_gap": 1.0302,
  "formation_energy": -2.8995583744444433,
  "energy_above_hull": 0.020625636666654002,
  "density": 6.964240683001815,
  "volume": 104.43998424482174,
  "nsites": 9,
  "total_magnetization": 6.0523521,
  "magnetic_type": "FM",
  "theoretical": null,
  "stability": {
    "energy_above_hull": 0.020625636666654002,
    "formation_energy_per_atom": -2.8995583744444433,
    "is_stable": true
  },
  "electronic_structure": {
    "band_gap": 1.0302,
    "is_metal": false,
    "is_gap_direct": false,
    "cbm": 5.2941,
    "vbm": 4.2639
  },
  "mechanical_properties": {
    "bulk_modulus": null,
    "shear_modulus": null
  },
  "processing_timestamp": "2025-06-10T23:36:43.817144",
  "local_database_props": {
    "Formula": "Cr2 O6 U1",
    "Space Group": "162 (P-31m)",
    "Property": "TI (SEBR)",
    "ICSD_ID": 274,
    "POSCAR_link": "https://www.topologicalquantumchemistry.com/data/nonalloycompounds/SG-162/Mat-274/POSCAR",
    "MatProject_link": "https://legacy.materialsproject.org/materials/icsd/274",
    "Unnamed: 6": NaN
  },
  "num_atoms": 9,
  "file_locations": {
    "structure_hdf5": "structures/mp-22172.h5",
    "point_cloud": "point_clouds/mp-22172_asph.npy",
    "crystal_graph": "graphs/mp-22172/crystal_graph.pkl",
    "kspace_graph_shared": "kspace_topology_graphs/SG_162/kspace_graph.pt",
    "vectorized_features_dir": "vectorized_features/mp-22172"
  },
  "vectorized_methods": [
    "asph_features",
    "band_rep_features",
    "basic_properties",
    "structural_properties",
    "combined_features"
  ],
  "vectorized_feature_sizes": {
    "asph_features": 63,
    "band_rep_features": 4756,
    "basic_properties": 4,
    "structural_properties": 4,
    "combined_features": 4827
  }
}