{
  "jid": "mp-27151",
  "formula": "V7O13",
  "normalized_formula": "V7O13",
  "space_group": "P-1",
  "space_group_number": 2,
  "topological_class": "Topological Insulator",
  "topological_binary": 1.0,
  "band_gap": 0.0,
  "formation_energy": -2.4800389505,
  "energy_above_hull": 0.045449105312499,
  "density": 4.695376166544382,
  "volume": 399.3339815269712,
  "nsites": 40,
  "total_magnetization": 17.9999989,
  "magnetic_type": "FM",
  "theoretical": null,
  "stability": {
    "energy_above_hull": 0.045449105312499,
    "formation_energy_per_atom": -2.4800389505,
    "is_stable": false
  },
  "electronic_structure": {
    "band_gap": 0.0,
    "is_metal": true,
    "is_gap_direct": false,
    "cbm": 4.711,
    "vbm": 4.7431
  },
  "mechanical_properties": {
    "bulk_modulus": null,
    "shear_modulus": null
  },
  "processing_timestamp": "2025-06-10T23:36:41.655345",
  "local_database_props": {
    "Formula": "O13 V7",
    "Space Group": "2 (P-1)",
    "Property": "TI (NLC)",
    "ICSD_ID": 197,
    "POSCAR_link": "https://www.topologicalquantumchemistry.com/data/nonalloycompounds/SG-2/Mat-197/POSCAR",
    "MatProject_link": "https://legacy.materialsproject.org/materials/icsd/197",
    "Unnamed: 6": NaN
  },
  "num_atoms": 40,
  "file_locations": {
    "structure_hdf5": "structures/mp-27151.h5",
    "point_cloud": "point_clouds/mp-27151_asph.npy",
    "crystal_graph": "graphs/mp-27151/crystal_graph.pkl",
    "kspace_graph_shared": "kspace_topology_graphs/SG_002/kspace_graph.pt",
    "vectorized_features_dir": "vectorized_features/mp-27151"
  },
  "vectorized_methods": [
    "asph_features",
    "band_rep_features",
    "basic_properties",
    "structural_properties",
    "combined_features"
  ],
  "vectorized_feature_sizes": {
    "asph_features": 63,
    "band_rep_features": 4756,
    "basic_properties": 4,
    "structural_properties": 4,
    "combined_features": 4827
  }
}