{
  "jid": "mp-3924",
  "formula": "LiNbO2",
  "normalized_formula": "LiNbO2",
  "space_group": "P6_3/mmc",
  "space_group_number": 194,
  "topological_class": "Trivial",
  "topological_binary": 0.0,
  "band_gap": 1.579499999999999,
  "formation_energy": -2.686382930833336,
  "energy_above_hull": 0.0,
  "density": 5.667091788849184,
  "volume": 77.26563847183948,
  "nsites": 8,
  "total_magnetization": 0.0,
  "magnetic_type": "NM",
  "theoretical": null,
  "stability": {
    "energy_above_hull": 0.0,
    "formation_energy_per_atom": -2.686382930833336,
    "is_stable": true
  },
  "electronic_structure": {
    "band_gap": 1.579499999999999,
    "is_metal": false,
    "is_gap_direct": true,
    "cbm": 6.7928,
    "vbm": 5.2133
  },
  "mechanical_properties": {
    "bulk_modulus": {
      "voigt": 163.815,
      "reuss": 149.519,
      "vrh": 156.667
    },
    "shear_modulus": {
      "voigt": 111.029,
      "reuss": 90.102,
      "vrh": 100.566
    }
  },
  "processing_timestamp": "2025-06-10T23:37:04.884741",
  "local_database_props": {
    "Formula": "Li1 Nb1 O2",
    "Space Group": "194 (P63/mmc)",
    "Property": "trivial (LCEBR)",
    "ICSD_ID": 451,
    "POSCAR_link": "https://www.topologicalquantumchemistry.com/data/nonalloycompounds/SG-194/Mat-451/POSCAR",
    "MatProject_link": "https://legacy.materialsproject.org/materials/icsd/451",
    "Unnamed: 6": NaN
  },
  "num_atoms": 8,
  "file_locations": {
    "structure_hdf5": "structures/mp-3924.h5",
    "point_cloud": "point_clouds/mp-3924_asph.npy",
    "crystal_graph": "graphs/mp-3924/crystal_graph.pkl",
    "kspace_graph_shared": "kspace_topology_graphs/SG_194/kspace_graph.pt",
    "vectorized_features_dir": "vectorized_features/mp-3924"
  },
  "vectorized_methods": [
    "asph_features",
    "band_rep_features",
    "basic_properties",
    "structural_properties",
    "combined_features"
  ],
  "vectorized_feature_sizes": {
    "asph_features": 63,
    "band_rep_features": 4756,
    "basic_properties": 4,
    "structural_properties": 4,
    "combined_features": 4827
  }
}