{
  "jid": "mp-30965",
  "formula": "NaClO2",
  "normalized_formula": "NaClO2",
  "space_group": "Unknown",
  "space_group_number": 15,
  "topological_class": "Unknown",
  "topological_binary": 0.0,
  "band_gap": 2.4465,
  "formation_energy": -0.9925589840948271,
  "processing_timestamp": "2025-06-10T10:39:12.880470",
  "local_database_props": {},
  "num_atoms": 8,
  "file_locations": {
    "structure_hdf5": "structures/mp-30965.h5",
    "poscar": "structures/mp-30965_POSCAR",
    "point_cloud": "point_clouds/mp-30965_asph.npy",
    "crystal_graph": "graphs/mp-30965/crystal_graph.pt",
    "kspace_graph": "graphs/mp-30965/kspace_graph.pt"
  }
}