{
  "jid": "mp-556869",
  "formula": "Sb5IO7",
  "normalized_formula": "Sb5IO7",
  "space_group": "P2_1/c",
  "space_group_number": 14,
  "topological_class": "Trivial",
  "topological_binary": 0.0,
  "band_gap": 2.7123,
  "formation_energy": -1.6352659711538462,
  "energy_above_hull": 0.014550492596147001,
  "density": 5.225534520126911,
  "volume": 1077.5084613301387,
  "nsites": 52,
  "total_magnetization": 0.002012899999999,
  "magnetic_type": "NM",
  "theoretical": null,
  "stability": {
    "energy_above_hull": 0.014550492596147001,
    "formation_energy_per_atom": -1.6352659711538462,
    "is_stable": true
  },
  "electronic_structure": {
    "band_gap": 2.7123,
    "is_metal": false,
    "is_gap_direct": false,
    "cbm": 6.2584,
    "vbm": 3.5461
  },
  "mechanical_properties": {
    "bulk_modulus": null,
    "shear_modulus": null
  },
  "processing_timestamp": "2025-06-10T23:36:29.665686",
  "local_database_props": {
    "Formula": "I1 O7 Sb5",
    "Space Group": "190 (P-62c)",
    "Property": "trivial (LCEBR)",
    "ICSD_ID": 62369,
    "POSCAR_link": "https://www.topologicalquantumchemistry.com/data/nonalloycompounds/SG-190/Mat-62369/POSCAR",
    "MatProject_link": "https://legacy.materialsproject.org/materials/icsd/62369",
    "Unnamed: 6": NaN
  },
  "num_atoms": 52,
  "file_locations": {
    "structure_hdf5": "structures/mp-556869.h5",
    "point_cloud": "point_clouds/mp-556869_asph.npy",
    "crystal_graph": "graphs/mp-556869/crystal_graph.pkl",
    "kspace_graph_shared": "kspace_topology_graphs/SG_014/kspace_graph.pt",
    "vectorized_features_dir": "vectorized_features/mp-556869"
  },
  "vectorized_methods": [
    "asph_features",
    "band_rep_features",
    "basic_properties",
    "structural_properties",
    "combined_features"
  ],
  "vectorized_feature_sizes": {
    "asph_features": 63,
    "band_rep_features": 4756,
    "basic_properties": 4,
    "structural_properties": 4,
    "combined_features": 4827
  }
}