{
  "jid": "mp-582549",
  "formula": "In2Te5",
  "normalized_formula": "In2Te5",
  "space_group": "Cc",
  "space_group_number": 9,
  "topological_class": "Trivial",
  "topological_binary": 0.0,
  "band_gap": 0.8878,
  "formation_energy": -0.326164277142859,
  "energy_above_hull": 0.001190307142856,
  "density": 5.562452872319942,
  "volume": 518.0245142419208,
  "nsites": 14,
  "total_magnetization": 0.0,
  "magnetic_type": "NM",
  "theoretical": null,
  "stability": {
    "energy_above_hull": 0.001190307142856,
    "formation_energy_per_atom": -0.326164277142859,
    "is_stable": true
  },
  "electronic_structure": {
    "band_gap": 0.8878,
    "is_metal": false,
    "is_gap_direct": false,
    "cbm": 4.9195,
    "vbm": 4.0317
  },
  "mechanical_properties": {
    "bulk_modulus": null,
    "shear_modulus": null
  },
  "processing_timestamp": "2025-06-10T23:37:10.166386",
  "local_database_props": {
    "Formula": "In2 Te5",
    "Space Group": "15 (C2/c)",
    "Property": "trivial (LCEBR)",
    "ICSD_ID": 1385,
    "POSCAR_link": "https://www.topologicalquantumchemistry.com/data/nonalloycompounds/SG-15/Mat-1385/POSCAR",
    "MatProject_link": "https://legacy.materialsproject.org/materials/icsd/1385",
    "Unnamed: 6": NaN
  },
  "num_atoms": 14,
  "file_locations": {
    "structure_hdf5": "structures/mp-582549.h5",
    "point_cloud": "point_clouds/mp-582549_asph.npy",
    "crystal_graph": "graphs/mp-582549/crystal_graph.pkl",
    "kspace_graph_shared": "kspace_topology_graphs/SG_009/kspace_graph.pt",
    "vectorized_features_dir": "vectorized_features/mp-582549"
  },
  "vectorized_methods": [
    "asph_features",
    "band_rep_features",
    "basic_properties",
    "structural_properties",
    "combined_features"
  ],
  "vectorized_feature_sizes": {
    "asph_features": 63,
    "band_rep_features": 4756,
    "basic_properties": 4,
    "structural_properties": 4,
    "combined_features": 4827
  }
}