{
  "jid": "mp-504451",
  "formula": "Cs3MnCl5",
  "normalized_formula": "Cs3MnCl5",
  "space_group": "Unknown",
  "space_group_number": 140,
  "topological_class": "Unknown",
  "topological_binary": 0.0,
  "band_gap": 2.8966000000000003,
  "formation_energy": -2.031326017998083,
  "processing_timestamp": "2025-06-10T10:12:08.535295",
  "local_database_props": {},
  "num_atoms": 18,
  "file_locations": {
    "structure_hdf5": "structures/mp-504451.h5",
    "poscar": "structures/mp-504451_POSCAR",
    "point_cloud": "point_clouds/mp-504451_asph.npy",
    "crystal_graph": "graphs/mp-504451/crystal_graph.pt",
    "kspace_graph": "graphs/mp-504451/kspace_graph.pt"
  }
}