{
  "jid": "mp-540585",
  "formula": "BaGa2(GeO4)2",
  "normalized_formula": "BaGa2(GeO4)2",
  "space_group": "P2_1/c",
  "space_group_number": 14,
  "topological_class": "Trivial",
  "topological_binary": 0.0,
  "band_gap": 3.246499999999999,
  "formation_energy": -2.456564405961537,
  "energy_above_hull": 0.0,
  "density": 4.441150483646272,
  "volume": 822.648570883921,
  "nsites": 52,
  "total_magnetization": 1.7500000000000002e-05,
  "magnetic_type": "NM",
  "theoretical": null,
  "stability": {
    "energy_above_hull": 0.0,
    "formation_energy_per_atom": -2.456564405961537,
    "is_stable": true
  },
  "electronic_structure": {
    "band_gap": 3.246499999999999,
    "is_metal": false,
    "is_gap_direct": true,
    "cbm": 2.7592,
    "vbm": -0.4873
  },
  "mechanical_properties": {
    "bulk_modulus": null,
    "shear_modulus": null
  },
  "processing_timestamp": "2025-06-10T23:36:53.580380",
  "local_database_props": {
    "Formula": "Ba1 Ga2 Ge2 O8",
    "Space Group": "15 (C2/c)",
    "Property": "trivial (LCEBR)",
    "ICSD_ID": 1445,
    "POSCAR_link": "https://www.topologicalquantumchemistry.com/data/nonalloycompounds/SG-15/Mat-1445/POSCAR",
    "MatProject_link": "https://legacy.materialsproject.org/materials/icsd/1445",
    "Unnamed: 6": NaN
  },
  "num_atoms": 52,
  "file_locations": {
    "structure_hdf5": "structures/mp-540585.h5",
    "point_cloud": "point_clouds/mp-540585_asph.npy",
    "crystal_graph": "graphs/mp-540585/crystal_graph.pkl",
    "kspace_graph_shared": "kspace_topology_graphs/SG_014/kspace_graph.pt",
    "vectorized_features_dir": "vectorized_features/mp-540585"
  },
  "vectorized_methods": [
    "asph_features",
    "band_rep_features",
    "basic_properties",
    "structural_properties",
    "combined_features"
  ],
  "vectorized_feature_sizes": {
    "asph_features": 63,
    "band_rep_features": 4756,
    "basic_properties": 4,
    "structural_properties": 4,
    "combined_features": 4827
  }
}