{
  "jid": "mp-557057",
  "formula": "NbO2",
  "normalized_formula": "NbO2",
  "space_group": "I4_1/a",
  "space_group_number": 88,
  "topological_class": "Semimetal",
  "topological_binary": 1.0,
  "band_gap": 0.28240000000000004,
  "formation_energy": -2.897628194166666,
  "energy_above_hull": 0.0,
  "density": 5.7487495278992515,
  "volume": 288.6331088235784,
  "nsites": 24,
  "total_magnetization": 0.0,
  "magnetic_type": "NM",
  "theoretical": null,
  "stability": {
    "energy_above_hull": 0.0,
    "formation_energy_per_atom": -2.897628194166666,
    "is_stable": true
  },
  "electronic_structure": {
    "band_gap": 0.28240000000000004,
    "is_metal": false,
    "is_gap_direct": false,
    "cbm": 4.5073,
    "vbm": 4.2249
  },
  "mechanical_properties": {
    "bulk_modulus": {
      "voigt": 208.446,
      "reuss": 206.453,
      "vrh": 207.449
    },
    "shear_modulus": {
      "voigt": 83.434,
      "reuss": 80.449,
      "vrh": 81.941
    }
  },
  "processing_timestamp": "2025-06-10T23:36:17.711464",
  "local_database_props": {
    "Formula": "Nb1 O2",
    "Space Group": "136 (P42/mnm)",
    "Property": "SM (ESFD)",
    "ICSD_ID": 56018,
    "POSCAR_link": "https://www.topologicalquantumchemistry.com/data/nonalloycompounds/SG-136/Mat-56018/POSCAR",
    "MatProject_link": "https://legacy.materialsproject.org/materials/icsd/56018",
    "Unnamed: 6": NaN
  },
  "num_atoms": 24,
  "file_locations": {
    "structure_hdf5": "structures/mp-557057.h5",
    "point_cloud": "point_clouds/mp-557057_asph.npy",
    "crystal_graph": "graphs/mp-557057/crystal_graph.pkl",
    "kspace_graph_shared": "kspace_topology_graphs/SG_088/kspace_graph.pt",
    "vectorized_features_dir": "vectorized_features/mp-557057"
  },
  "vectorized_methods": [
    "asph_features",
    "band_rep_features",
    "basic_properties",
    "structural_properties",
    "combined_features"
  ],
  "vectorized_feature_sizes": {
    "asph_features": 63,
    "band_rep_features": 4756,
    "basic_properties": 4,
    "structural_properties": 4,
    "combined_features": 4827
  }
}