{
  "jid": "mp-540550",
  "formula": "NaH2ClO5",
  "normalized_formula": "NaH2ClO5",
  "space_group": "C2/c",
  "space_group_number": 15,
  "topological_class": "Trivial",
  "topological_binary": 0.0,
  "band_gap": 5.2337,
  "formation_energy": -1.0882969890421461,
  "energy_above_hull": 0.007903628333332,
  "density": 2.19577449688481,
  "volume": 424.8744001915611,
  "nsites": 36,
  "total_magnetization": 0.0,
  "magnetic_type": "NM",
  "theoretical": null,
  "stability": {
    "energy_above_hull": 0.007903628333332,
    "formation_energy_per_atom": -1.0882969890421461,
    "is_stable": true
  },
  "electronic_structure": {
    "band_gap": 5.2337,
    "is_metal": false,
    "is_gap_direct": false,
    "cbm": 3.7086,
    "vbm": -1.5251000000000001
  },
  "mechanical_properties": {
    "bulk_modulus": null,
    "shear_modulus": null
  },
  "processing_timestamp": "2025-06-10T23:36:38.433428",
  "local_database_props": {
    "Formula": "H2 Cl1 Na1 O5",
    "Space Group": "15 (C2/c)",
    "Property": "trivial (LCEBR)",
    "ICSD_ID": 183,
    "POSCAR_link": "https://www.topologicalquantumchemistry.com/data/nonalloycompounds/SG-15/Mat-183/POSCAR",
    "MatProject_link": "https://legacy.materialsproject.org/materials/icsd/183",
    "Unnamed: 6": NaN
  },
  "num_atoms": 36,
  "file_locations": {
    "structure_hdf5": "structures/mp-540550.h5",
    "point_cloud": "point_clouds/mp-540550_asph.npy",
    "crystal_graph": "graphs/mp-540550/crystal_graph.pkl",
    "kspace_graph_shared": "kspace_topology_graphs/SG_015/kspace_graph.pt",
    "vectorized_features_dir": "vectorized_features/mp-540550"
  },
  "vectorized_methods": [
    "asph_features",
    "band_rep_features",
    "basic_properties",
    "structural_properties",
    "combined_features"
  ],
  "vectorized_feature_sizes": {
    "asph_features": 63,
    "band_rep_features": 4756,
    "basic_properties": 4,
    "structural_properties": 4,
    "combined_features": 4827
  }
}