{
  "jid": "mp-554288",
  "formula": "NaPH4O5",
  "normalized_formula": "NaPH4O5",
  "space_group": "Unknown",
  "space_group_number": 33,
  "topological_class": "Unknown",
  "topological_binary": 0.0,
  "band_gap": 5.4573,
  "formation_energy": -1.9025312148656521,
  "energy_above_hull": 0.0,
  "density": 2.0138288957365544,
  "volume": 455.1361658285836,
  "nsites": 44,
  "total_magnetization": 0.0,
  "magnetic_type": "Unknown",
  "theoretical": true,
  "stability": {
    "energy_above_hull": 0.0,
    "formation_energy_per_atom": -1.9025312148656521,
    "is_stable": true
  },
  "electronic_structure": {
    "band_gap": 5.4573,
    "is_metal": false,
    "is_gap_direct": null,
    "cbm": null,
    "vbm": null
  },
  "mechanical_properties": {
    "bulk_modulus": null,
    "shear_modulus": null,
    "elastic_tensor": null
  },
  "processing_timestamp": "2025-06-10T11:39:20.688864",
  "local_database_props": {},
  "num_atoms": 44,
  "file_locations": {
    "structure_hdf5": "structures/mp-554288.h5",
    "poscar": "structures/mp-554288_POSCAR",
    "point_cloud": "point_clouds/mp-554288_asph.npy",
    "crystal_graph": "graphs/mp-554288/crystal_graph.pt",
    "kspace_graph_reference": "kspace_graph_mp-554288",
    "vectorized_features_dir": "vectorized_features/mp-554288"
  },
  "vectorized_methods": [
    "asph_features",
    "basic_properties",
    "structural_properties",
    "combined_features"
  ],
  "vectorized_feature_sizes": {
    "asph_features": 128,
    "basic_properties": 4,
    "structural_properties": 3,
    "combined_features": 135
  }
}