{
  "jid": "mp-504607",
  "formula": "YInO3",
  "normalized_formula": "YInO3",
  "space_group": "P6_3cm",
  "space_group_number": 185,
  "topological_class": "Trivial",
  "topological_binary": 0.0,
  "band_gap": 2.051699999999999,
  "formation_energy": -2.969400000333334,
  "energy_above_hull": 0.0045696548749970005,
  "density": 5.956810290032705,
  "volume": 421.0249555696462,
  "nsites": 30,
  "total_magnetization": 0.0,
  "magnetic_type": "NM",
  "theoretical": null,
  "stability": {
    "energy_above_hull": 0.0045696548749970005,
    "formation_energy_per_atom": -2.969400000333334,
    "is_stable": true
  },
  "electronic_structure": {
    "band_gap": 2.051699999999999,
    "is_metal": false,
    "is_gap_direct": false,
    "cbm": 5.2879,
    "vbm": 3.2362
  },
  "mechanical_properties": {
    "bulk_modulus": null,
    "shear_modulus": null
  },
  "processing_timestamp": "2025-06-10T23:36:43.114970",
  "local_database_props": {
    "Formula": "In1 O3 Y1",
    "Space Group": "185 (P63cm)",
    "Property": "trivial (LCEBR)",
    "ICSD_ID": 251,
    "POSCAR_link": "https://www.topologicalquantumchemistry.com/data/nonalloycompounds/SG-185/Mat-251/POSCAR",
    "MatProject_link": "https://legacy.materialsproject.org/materials/icsd/251",
    "Unnamed: 6": NaN
  },
  "num_atoms": 30,
  "file_locations": {
    "structure_hdf5": "structures/mp-504607.h5",
    "point_cloud": "point_clouds/mp-504607_asph.npy",
    "crystal_graph": "graphs/mp-504607/crystal_graph.pkl",
    "kspace_graph_shared": "kspace_topology_graphs/SG_185/kspace_graph.pt",
    "vectorized_features_dir": "vectorized_features/mp-504607"
  },
  "vectorized_methods": [
    "asph_features",
    "band_rep_features",
    "basic_properties",
    "structural_properties",
    "combined_features"
  ],
  "vectorized_feature_sizes": {
    "asph_features": 63,
    "band_rep_features": 4756,
    "basic_properties": 4,
    "structural_properties": 4,
    "combined_features": 4827
  }
}