{
  "jid": "mp-582399",
  "formula": "Pu3Pd5",
  "normalized_formula": "Pu3Pd5",
  "space_group": "Cmcm",
  "space_group_number": 63,
  "topological_class": "Trivial",
  "topological_binary": 0.0,
  "band_gap": 0.0,
  "formation_energy": 0.356143101718755,
  "energy_above_hull": 0.7588597785416711,
  "density": 12.8074665313724,
  "volume": 327.79120350574584,
  "nsites": 16,
  "total_magnetization": 0.5248959,
  "magnetic_type": "FM",
  "theoretical": null,
  "stability": {
    "energy_above_hull": 0.7588597785416711,
    "formation_energy_per_atom": 0.356143101718755,
    "is_stable": false
  },
  "electronic_structure": {
    "band_gap": 0.0,
    "is_metal": true,
    "is_gap_direct": false,
    "cbm": null,
    "vbm": null
  },
  "mechanical_properties": {
    "bulk_modulus": null,
    "shear_modulus": null
  },
  "processing_timestamp": "2025-06-10T23:36:51.171842",
  "local_database_props": {
    "Formula": "Pd5 Pu3",
    "Space Group": "63 (Cmcm)",
    "Property": "trivial (LCEBR)",
    "ICSD_ID": 350,
    "POSCAR_link": "https://www.topologicalquantumchemistry.com/data/nonalloycompounds/SG-63/Mat-350/POSCAR",
    "MatProject_link": "https://legacy.materialsproject.org/materials/icsd/350",
    "Unnamed: 6": NaN
  },
  "num_atoms": 16,
  "file_locations": {
    "structure_hdf5": "structures/mp-582399.h5",
    "point_cloud": "point_clouds/mp-582399_asph.npy",
    "crystal_graph": "graphs/mp-582399/crystal_graph.pkl",
    "kspace_graph_shared": "kspace_topology_graphs/SG_063/kspace_graph.pt",
    "vectorized_features_dir": "vectorized_features/mp-582399"
  },
  "vectorized_methods": [
    "asph_features",
    "band_rep_features",
    "basic_properties",
    "structural_properties",
    "combined_features"
  ],
  "vectorized_feature_sizes": {
    "asph_features": 63,
    "band_rep_features": 4756,
    "basic_properties": 4,
    "structural_properties": 4,
    "combined_features": 4827
  }
}