{
  "jid": "mp-557961",
  "formula": "SbCNCl4O",
  "normalized_formula": "SbCNCl4O",
  "space_group": "P6_3/m",
  "space_group_number": 176,
  "topological_class": "Trivial",
  "topological_binary": 0.0,
  "band_gap": 2.1437,
  "formation_energy": -1.05807126375,
  "energy_above_hull": 0.047046949327257004,
  "density": 2.295167732558608,
  "volume": 1326.5491672359672,
  "nsites": 48,
  "total_magnetization": 0.0010678,
  "magnetic_type": "NM",
  "theoretical": null,
  "stability": {
    "energy_above_hull": 0.047046949327257004,
    "formation_energy_per_atom": -1.05807126375,
    "is_stable": false
  },
  "electronic_structure": {
    "band_gap": 2.1437,
    "is_metal": false,
    "is_gap_direct": true,
    "cbm": 0.5486,
    "vbm": -1.5951
  },
  "mechanical_properties": {
    "bulk_modulus": null,
    "shear_modulus": null
  },
  "processing_timestamp": "2025-06-10T23:36:25.629382",
  "local_database_props": {
    "Formula": "C1 Cl4 N1 O1 Sb1",
    "Space Group": "176 (P63/m)",
    "Property": "trivial (LCEBR)",
    "ICSD_ID": 118,
    "POSCAR_link": "https://www.topologicalquantumchemistry.com/data/nonalloycompounds/SG-176/Mat-118/POSCAR",
    "MatProject_link": "https://legacy.materialsproject.org/materials/icsd/118",
    "Unnamed: 6": NaN
  },
  "num_atoms": 48,
  "file_locations": {
    "structure_hdf5": "structures/mp-557961.h5",
    "point_cloud": "point_clouds/mp-557961_asph.npy",
    "crystal_graph": "graphs/mp-557961/crystal_graph.pkl",
    "kspace_graph_shared": "kspace_topology_graphs/SG_176/kspace_graph.pt",
    "vectorized_features_dir": "vectorized_features/mp-557961"
  },
  "vectorized_methods": [
    "asph_features",
    "band_rep_features",
    "basic_properties",
    "structural_properties",
    "combined_features"
  ],
  "vectorized_feature_sizes": {
    "asph_features": 63,
    "band_rep_features": 4756,
    "basic_properties": 4,
    "structural_properties": 4,
    "combined_features": 4827
  }
}