{
  "jid": "mp-556235",
  "formula": "CaCO3",
  "normalized_formula": "CaCO3",
  "space_group": "P2_1/c",
  "space_group_number": 14,
  "topological_class": "Trivial",
  "topological_binary": 0.0,
  "band_gap": 5.0106,
  "formation_energy": -2.686676765,
  "energy_above_hull": 0.0008676930000000001,
  "density": 2.713896574072206,
  "volume": 244.95879367681044,
  "nsites": 20,
  "total_magnetization": 0.0,
  "magnetic_type": "NM",
  "theoretical": null,
  "stability": {
    "energy_above_hull": 0.0008676930000000001,
    "formation_energy_per_atom": -2.686676765,
    "is_stable": true
  },
  "electronic_structure": {
    "band_gap": 5.0106,
    "is_metal": false,
    "is_gap_direct": false,
    "cbm": 6.0761,
    "vbm": 1.0655000000000001
  },
  "mechanical_properties": {
    "bulk_modulus": null,
    "shear_modulus": null
  },
  "processing_timestamp": "2025-06-10T23:36:30.511171",
  "local_database_props": {
    "Formula": "C1 Ca1 O3",
    "Space Group": "167 (R-3c)",
    "Property": "trivial (LCEBR)",
    "ICSD_ID": 423567,
    "POSCAR_link": "https://www.topologicalquantumchemistry.com/data/nonalloycompounds/SG-167/Mat-423567/POSCAR",
    "MatProject_link": "https://legacy.materialsproject.org/materials/icsd/423567",
    "Unnamed: 6": NaN
  },
  "num_atoms": 20,
  "file_locations": {
    "structure_hdf5": "structures/mp-556235.h5",
    "point_cloud": "point_clouds/mp-556235_asph.npy",
    "crystal_graph": "graphs/mp-556235/crystal_graph.pkl",
    "kspace_graph_shared": "kspace_topology_graphs/SG_014/kspace_graph.pt",
    "vectorized_features_dir": "vectorized_features/mp-556235"
  },
  "vectorized_methods": [
    "asph_features",
    "band_rep_features",
    "basic_properties",
    "structural_properties",
    "combined_features"
  ],
  "vectorized_feature_sizes": {
    "asph_features": 63,
    "band_rep_features": 4756,
    "basic_properties": 4,
    "structural_properties": 4,
    "combined_features": 4827
  }
}