{
  "jid": "mp-553972",
  "formula": "CuCSN",
  "normalized_formula": "CuCSN",
  "space_group": "Pbca",
  "space_group_number": 61,
  "topological_class": "Trivial",
  "topological_binary": 0.0,
  "band_gap": 2.4001,
  "formation_energy": 0.037774511171875004,
  "energy_above_hull": 0.176667220208333,
  "density": 3.05275524137143,
  "volume": 529.2758674418152,
  "nsites": 32,
  "total_magnetization": 2.6200000000000003e-05,
  "magnetic_type": "NM",
  "theoretical": null,
  "stability": {
    "energy_above_hull": 0.176667220208333,
    "formation_energy_per_atom": 0.037774511171875004,
    "is_stable": false
  },
  "electronic_structure": {
    "band_gap": 2.4001,
    "is_metal": false,
    "is_gap_direct": true,
    "cbm": 5.1634,
    "vbm": 2.7633
  },
  "mechanical_properties": {
    "bulk_modulus": null,
    "shear_modulus": null
  },
  "processing_timestamp": "2025-06-10T23:36:27.179337",
  "local_database_props": {
    "Formula": "C1 Cu1 N1 S1",
    "Space Group": "186 (P63mc)",
    "Property": "trivial (LCEBR)",
    "ICSD_ID": 32578,
    "POSCAR_link": "https://www.topologicalquantumchemistry.com/data/nonalloycompounds/SG-186/Mat-32578/POSCAR",
    "MatProject_link": "https://legacy.materialsproject.org/materials/icsd/32578",
    "Unnamed: 6": NaN
  },
  "num_atoms": 32,
  "file_locations": {
    "structure_hdf5": "structures/mp-553972.h5",
    "point_cloud": "point_clouds/mp-553972_asph.npy",
    "crystal_graph": "graphs/mp-553972/crystal_graph.pkl",
    "kspace_graph_shared": "kspace_topology_graphs/SG_061/kspace_graph.pt",
    "vectorized_features_dir": "vectorized_features/mp-553972"
  },
  "vectorized_methods": [
    "asph_features",
    "band_rep_features",
    "basic_properties",
    "structural_properties",
    "combined_features"
  ],
  "vectorized_feature_sizes": {
    "asph_features": 63,
    "band_rep_features": 4756,
    "basic_properties": 4,
    "structural_properties": 4,
    "combined_features": 4827
  }
}