{
  "jid": "mp-696152",
  "formula": "CuSnH12(NO3)2",
  "normalized_formula": "CuSnH12(NO3)2",
  "space_group": "P-1",
  "space_group_number": 2,
  "topological_class": "Semimetal",
  "topological_binary": 1.0,
  "band_gap": 0.6204000000000001,
  "formation_energy": -1.04057751090909,
  "energy_above_hull": 0.04814663848484901,
  "density": 2.898548380078659,
  "volume": 182.38474619168565,
  "nsites": 22,
  "total_magnetization": 1.002879,
  "magnetic_type": "FM",
  "theoretical": null,
  "stability": {
    "energy_above_hull": 0.04814663848484901,
    "formation_energy_per_atom": -1.04057751090909,
    "is_stable": false
  },
  "electronic_structure": {
    "band_gap": 0.6204000000000001,
    "is_metal": false,
    "is_gap_direct": false,
    "cbm": 2.2286,
    "vbm": 1.6082
  },
  "mechanical_properties": {
    "bulk_modulus": null,
    "shear_modulus": null
  },
  "processing_timestamp": "2025-06-10T23:36:21.193119",
  "local_database_props": {
    "Formula": "H12 Cu1 N2 O6 Sn1",
    "Space Group": "2 (P-1)",
    "Property": "SM (ESFD)",
    "ICSD_ID": 103,
    "POSCAR_link": "https://www.topologicalquantumchemistry.com/data/nonalloycompounds/SG-2/Mat-103/POSCAR",
    "MatProject_link": "https://legacy.materialsproject.org/materials/icsd/103",
    "Unnamed: 6": NaN
  },
  "num_atoms": 22,
  "file_locations": {
    "structure_hdf5": "structures/mp-696152.h5",
    "point_cloud": "point_clouds/mp-696152_asph.npy",
    "crystal_graph": "graphs/mp-696152/crystal_graph.pkl",
    "kspace_graph_shared": "kspace_topology_graphs/SG_002/kspace_graph.pt",
    "vectorized_features_dir": "vectorized_features/mp-696152"
  },
  "vectorized_methods": [
    "asph_features",
    "band_rep_features",
    "basic_properties",
    "structural_properties",
    "combined_features"
  ],
  "vectorized_feature_sizes": {
    "asph_features": 63,
    "band_rep_features": 4756,
    "basic_properties": 4,
    "structural_properties": 4,
    "combined_features": 4827
  }
}