{
  "jid": "mp-6759",
  "formula": "BaGa2(SiO4)2",
  "normalized_formula": "BaGa2(SiO4)2",
  "space_group": "C2/c",
  "space_group_number": 15,
  "topological_class": "Trivial",
  "topological_binary": 0.0,
  "band_gap": 4.1576,
  "formation_energy": -2.979884517884614,
  "energy_above_hull": 0.0,
  "density": 3.8477115785259652,
  "volume": 795.7015834545203,
  "nsites": 52,
  "total_magnetization": 0.0053602,
  "magnetic_type": "NM",
  "theoretical": null,
  "stability": {
    "energy_above_hull": 0.0,
    "formation_energy_per_atom": -2.979884517884614,
    "is_stable": true
  },
  "electronic_structure": {
    "band_gap": 4.1576,
    "is_metal": false,
    "is_gap_direct": false,
    "cbm": 4.5282,
    "vbm": 0.37060000000000004
  },
  "mechanical_properties": {
    "bulk_modulus": null,
    "shear_modulus": null
  },
  "processing_timestamp": "2025-06-10T23:36:34.794911",
  "local_database_props": {
    "Formula": "Ba1 Ga2 O8 Si2",
    "Space Group": "15 (C2/c)",
    "Property": "trivial (LCEBR)",
    "ICSD_ID": 163,
    "POSCAR_link": "https://www.topologicalquantumchemistry.com/data/nonalloycompounds/SG-15/Mat-163/POSCAR",
    "MatProject_link": "https://legacy.materialsproject.org/materials/icsd/163",
    "Unnamed: 6": NaN
  },
  "num_atoms": 52,
  "file_locations": {
    "structure_hdf5": "structures/mp-6759.h5",
    "point_cloud": "point_clouds/mp-6759_asph.npy",
    "crystal_graph": "graphs/mp-6759/crystal_graph.pkl",
    "kspace_graph_shared": "kspace_topology_graphs/SG_015/kspace_graph.pt",
    "vectorized_features_dir": "vectorized_features/mp-6759"
  },
  "vectorized_methods": [
    "asph_features",
    "band_rep_features",
    "basic_properties",
    "structural_properties",
    "combined_features"
  ],
  "vectorized_feature_sizes": {
    "asph_features": 63,
    "band_rep_features": 4756,
    "basic_properties": 4,
    "structural_properties": 4,
    "combined_features": 4827
  }
}