{
  "jid": "mp-696155",
  "formula": "Na4P2H4CO9",
  "normalized_formula": "Na4P2H4CO9",
  "space_group": "P-4",
  "space_group_number": 81,
  "topological_class": "Unknown",
  "topological_binary": 0.0,
  "band_gap": 2.1219,
  "formation_energy": -1.942418962740148,
  "energy_above_hull": 0.135529121874991,
  "density": 2.198318420396967,
  "volume": 474.2858988617795,
  "nsites": 40,
  "total_magnetization": 0.0007341,
  "magnetic_type": "NM",
  "theoretical": null,
  "stability": {
    "energy_above_hull": 0.135529121874991,
    "formation_energy_per_atom": -1.942418962740148,
    "is_stable": false
  },
  "electronic_structure": {
    "band_gap": 2.1219,
    "is_metal": false,
    "is_gap_direct": false,
    "cbm": 2.891,
    "vbm": 0.7691
  },
  "mechanical_properties": {
    "bulk_modulus": null,
    "shear_modulus": null
  },
  "processing_timestamp": "2025-06-10T16:29:47.379689",
  "local_database_props": {},
  "num_atoms": 40,
  "file_locations": {
    "structure_hdf5": "structures/mp-696155.h5",
    "poscar": "structures/mp-696155_POSCAR",
    "point_cloud": "point_clouds/mp-696155_asph.npy",
    "crystal_graph": "graphs/mp-696155/crystal_graph.pkl",
    "kspace_graph": "graphs/mp-696155/kspace_graph.pkl",
    "vectorized_features_dir": "vectorized_features/mp-696155"
  },
  "vectorized_methods": [
    "asph_features",
    "band_rep_features",
    "basic_properties",
    "structural_properties",
    "combined_features"
  ],
  "vectorized_feature_sizes": {
    "asph_features": 128,
    "band_rep_features": 100,
    "basic_properties": 4,
    "structural_properties": 4,
    "combined_features": 236
  }
}