{
  "jid": "mp-7363",
  "formula": "Sr(ZnGe)2",
  "normalized_formula": "Sr(ZnGe)2",
  "space_group": "I4/mmm",
  "space_group_number": 139,
  "topological_class": "Topological Insulator",
  "topological_binary": 1.0,
  "band_gap": 0.0,
  "formation_energy": -0.40939314600000004,
  "energy_above_hull": 0.0,
  "density": 5.955565844199484,
  "volume": 101.41235342295187,
  "nsites": 5,
  "total_magnetization": 0.0,
  "magnetic_type": "NM",
  "theoretical": null,
  "stability": {
    "energy_above_hull": 0.0,
    "formation_energy_per_atom": -0.40939314600000004,
    "is_stable": true
  },
  "electronic_structure": {
    "band_gap": 0.0,
    "is_metal": true,
    "is_gap_direct": false,
    "cbm": null,
    "vbm": null
  },
  "mechanical_properties": {
    "bulk_modulus": {
      "voigt": 53.368,
      "reuss": 53.367,
      "vrh": 53.367
    },
    "shear_modulus": {
      "voigt": 2.798,
      "reuss": 90.673,
      "vrh": 46.735
    }
  },
  "processing_timestamp": "2025-06-10T23:36:59.798196",
  "local_database_props": {
    "Formula": "Ge2 Sr1 Zn2",
    "Space Group": "139 (I4/mmm)",
    "Property": "TI (SEBR)",
    "ICSD_ID": 411,
    "POSCAR_link": "https://www.topologicalquantumchemistry.com/data/nonalloycompounds/SG-139/Mat-411/POSCAR",
    "MatProject_link": "https://legacy.materialsproject.org/materials/icsd/411",
    "Unnamed: 6": NaN
  },
  "num_atoms": 5,
  "file_locations": {
    "structure_hdf5": "structures/mp-7363.h5",
    "point_cloud": "point_clouds/mp-7363_asph.npy",
    "crystal_graph": "graphs/mp-7363/crystal_graph.pkl",
    "kspace_graph_shared": "kspace_topology_graphs/SG_139/kspace_graph.pt",
    "vectorized_features_dir": "vectorized_features/mp-7363"
  },
  "vectorized_methods": [
    "asph_features",
    "band_rep_features",
    "basic_properties",
    "structural_properties",
    "combined_features"
  ],
  "vectorized_feature_sizes": {
    "asph_features": 63,
    "band_rep_features": 4756,
    "basic_properties": 4,
    "structural_properties": 4,
    "combined_features": 4827
  }
}