{
  "jid": "mp-706287",
  "formula": "KCuPH2O5",
  "normalized_formula": "KCuPH2O5",
  "space_group": "Unknown",
  "space_group_number": 14,
  "topological_class": "Unknown",
  "topological_binary": 0.0,
  "band_gap": 0.016899999999999003,
  "formation_energy": -1.914859854439286,
  "energy_above_hull": 0.0,
  "density": 2.8889588299491384,
  "volume": 495.7683708702247,
  "nsites": 40,
  "total_magnetization": 0.0,
  "magnetic_type": "Unknown",
  "theoretical": true,
  "stability": {
    "energy_above_hull": 0.0,
    "formation_energy_per_atom": -1.914859854439286,
    "is_stable": true
  },
  "electronic_structure": {
    "band_gap": 0.016899999999999003,
    "is_metal": false,
    "is_gap_direct": null,
    "cbm": null,
    "vbm": null
  },
  "mechanical_properties": {
    "bulk_modulus": null,
    "shear_modulus": null,
    "elastic_tensor": null
  },
  "processing_timestamp": "2025-06-10T11:39:20.956884",
  "local_database_props": {},
  "num_atoms": 40,
  "file_locations": {
    "structure_hdf5": "structures/mp-706287.h5",
    "poscar": "structures/mp-706287_POSCAR",
    "point_cloud": "point_clouds/mp-706287_asph.npy",
    "crystal_graph": "graphs/mp-706287/crystal_graph.pt",
    "kspace_graph_reference": "kspace_graph_mp-706287",
    "vectorized_features_dir": "vectorized_features/mp-706287"
  },
  "vectorized_methods": [
    "asph_features",
    "basic_properties",
    "structural_properties",
    "combined_features"
  ],
  "vectorized_feature_sizes": {
    "asph_features": 128,
    "basic_properties": 4,
    "structural_properties": 3,
    "combined_features": 135
  }
}