{
  "jid": "mp-7373",
  "formula": "CdAs",
  "normalized_formula": "CdAs",
  "space_group": "Pbca",
  "space_group_number": 61,
  "topological_class": "Trivial",
  "topological_binary": 0.0,
  "band_gap": 0.09189999999999901,
  "formation_energy": -0.048477316250000006,
  "energy_above_hull": 0.015634253046873003,
  "density": 6.473046394779165,
  "volume": 384.45341717142287,
  "nsites": 16,
  "total_magnetization": 0.0,
  "magnetic_type": "NM",
  "theoretical": null,
  "stability": {
    "energy_above_hull": 0.015634253046873003,
    "formation_energy_per_atom": -0.048477316250000006,
    "is_stable": true
  },
  "electronic_structure": {
    "band_gap": 0.09189999999999901,
    "is_metal": false,
    "is_gap_direct": false,
    "cbm": 2.7656,
    "vbm": 2.6737
  },
  "mechanical_properties": {
    "bulk_modulus": null,
    "shear_modulus": null
  },
  "processing_timestamp": "2025-06-10T23:37:02.494160",
  "local_database_props": {
    "Formula": "As1 Cd1",
    "Space Group": "61 (Pbca)",
    "Property": "trivial (LCEBR)",
    "ICSD_ID": 432,
    "POSCAR_link": "https://www.topologicalquantumchemistry.com/data/nonalloycompounds/SG-61/Mat-432/POSCAR",
    "MatProject_link": "https://legacy.materialsproject.org/materials/icsd/432",
    "Unnamed: 6": NaN
  },
  "num_atoms": 16,
  "file_locations": {
    "structure_hdf5": "structures/mp-7373.h5",
    "point_cloud": "point_clouds/mp-7373_asph.npy",
    "crystal_graph": "graphs/mp-7373/crystal_graph.pkl",
    "kspace_graph_shared": "kspace_topology_graphs/SG_061/kspace_graph.pt",
    "vectorized_features_dir": "vectorized_features/mp-7373"
  },
  "vectorized_methods": [
    "asph_features",
    "band_rep_features",
    "basic_properties",
    "structural_properties",
    "combined_features"
  ],
  "vectorized_feature_sizes": {
    "asph_features": 63,
    "band_rep_features": 4756,
    "basic_properties": 4,
    "structural_properties": 4,
    "combined_features": 4827
  }
}