{
  "jid": "mp-7258",
  "formula": "K4SnO4",
  "normalized_formula": "K4SnO4",
  "space_group": "P-1",
  "space_group_number": 2,
  "topological_class": "Trivial",
  "topological_binary": 0.0,
  "band_gap": 2.3423,
  "formation_energy": -1.823757819333333,
  "energy_above_hull": 0.0,
  "density": 3.109594323601198,
  "volume": 362.16307808486266,
  "nsites": 18,
  "total_magnetization": 0.08871079999999901,
  "magnetic_type": "NM",
  "theoretical": null,
  "stability": {
    "energy_above_hull": 0.0,
    "formation_energy_per_atom": -1.823757819333333,
    "is_stable": true
  },
  "electronic_structure": {
    "band_gap": 2.3423,
    "is_metal": false,
    "is_gap_direct": false,
    "cbm": 2.5663,
    "vbm": 0.224
  },
  "mechanical_properties": {
    "bulk_modulus": null,
    "shear_modulus": null
  },
  "processing_timestamp": "2025-06-10T23:36:32.529900",
  "local_database_props": {
    "Formula": "K4 O4 Sn1",
    "Space Group": "2 (P-1)",
    "Property": "trivial (LCEBR)",
    "ICSD_ID": 158,
    "POSCAR_link": "https://www.topologicalquantumchemistry.com/data/nonalloycompounds/SG-2/Mat-158/POSCAR",
    "MatProject_link": "https://legacy.materialsproject.org/materials/icsd/158",
    "Unnamed: 6": NaN
  },
  "num_atoms": 18,
  "file_locations": {
    "structure_hdf5": "structures/mp-7258.h5",
    "point_cloud": "point_clouds/mp-7258_asph.npy",
    "crystal_graph": "graphs/mp-7258/crystal_graph.pkl",
    "kspace_graph_shared": "kspace_topology_graphs/SG_002/kspace_graph.pt",
    "vectorized_features_dir": "vectorized_features/mp-7258"
  },
  "vectorized_methods": [
    "asph_features",
    "band_rep_features",
    "basic_properties",
    "structural_properties",
    "combined_features"
  ],
  "vectorized_feature_sizes": {
    "asph_features": 63,
    "band_rep_features": 4756,
    "basic_properties": 4,
    "structural_properties": 4,
    "combined_features": 4827
  }
}