{
  "jid": "mp-706287",
  "formula": "KCuPH2O5",
  "normalized_formula": "KCuPH2O5",
  "space_group": "Unknown",
  "space_group_number": 14,
  "topological_class": "Unknown",
  "topological_binary": 0.0,
  "band_gap": 0.016899999999999003,
  "formation_energy": -1.914859854439286,
  "processing_timestamp": "2025-06-10T10:39:11.142123",
  "local_database_props": {},
  "num_atoms": 40,
  "file_locations": {
    "structure_hdf5": "structures/mp-706287.h5",
    "poscar": "structures/mp-706287_POSCAR",
    "point_cloud": "point_clouds/mp-706287_asph.npy",
    "crystal_graph": "graphs/mp-706287/crystal_graph.pt",
    "kspace_graph": "graphs/mp-706287/kspace_graph.pt"
  }
}