{
  "jid": "mp-7366",
  "formula": "Sr(AgSn)2",
  "normalized_formula": "Sr(AgSn)2",
  "space_group": "I4/mmm",
  "space_group_number": 139,
  "topological_class": "Semimetal",
  "topological_binary": 1.0,
  "band_gap": 0.0,
  "formation_energy": -0.37273311200000003,
  "energy_above_hull": 0.0,
  "density": 6.975139754914888,
  "volume": 128.74012135205817,
  "nsites": 5,
  "total_magnetization": 1e-07,
  "magnetic_type": "NM",
  "theoretical": null,
  "stability": {
    "energy_above_hull": 0.0,
    "formation_energy_per_atom": -0.37273311200000003,
    "is_stable": true
  },
  "electronic_structure": {
    "band_gap": 0.0,
    "is_metal": true,
    "is_gap_direct": false,
    "cbm": null,
    "vbm": null
  },
  "mechanical_properties": {
    "bulk_modulus": {
      "voigt": 50.206,
      "reuss": 49.214,
      "vrh": 49.71
    },
    "shear_modulus": {
      "voigt": 6.942,
      "reuss": 320.547,
      "vrh": 163.745
    }
  },
  "processing_timestamp": "2025-06-10T23:37:00.553131",
  "local_database_props": {
    "Formula": "Ag2 Sn2 Sr1",
    "Space Group": "139 (I4/mmm)",
    "Property": "SM (ES)",
    "ICSD_ID": 414,
    "POSCAR_link": "https://www.topologicalquantumchemistry.com/data/nonalloycompounds/SG-139/Mat-414/POSCAR",
    "MatProject_link": "https://legacy.materialsproject.org/materials/icsd/414",
    "Unnamed: 6": NaN
  },
  "num_atoms": 5,
  "file_locations": {
    "structure_hdf5": "structures/mp-7366.h5",
    "point_cloud": "point_clouds/mp-7366_asph.npy",
    "crystal_graph": "graphs/mp-7366/crystal_graph.pkl",
    "kspace_graph_shared": "kspace_topology_graphs/SG_139/kspace_graph.pt",
    "vectorized_features_dir": "vectorized_features/mp-7366"
  },
  "vectorized_methods": [
    "asph_features",
    "band_rep_features",
    "basic_properties",
    "structural_properties",
    "combined_features"
  ],
  "vectorized_feature_sizes": {
    "asph_features": 63,
    "band_rep_features": 4756,
    "basic_properties": 4,
    "structural_properties": 4,
    "combined_features": 4827
  }
}