{
  "jid": "mp-721293",
  "formula": "Na4GeH28(Se2O7)2",
  "normalized_formula": "Na4GeH28(Se2O7)2",
  "space_group": "C2",
  "space_group_number": 5,
  "topological_class": "Trivial",
  "topological_binary": 0.0,
  "band_gap": 2.043,
  "formation_energy": -1.225050608919455,
  "energy_above_hull": 0.020909436887255002,
  "density": 2.137874167767188,
  "volume": 569.0694720587611,
  "nsites": 51,
  "total_magnetization": 9e-07,
  "magnetic_type": "NM",
  "theoretical": null,
  "stability": {
    "energy_above_hull": 0.020909436887255002,
    "formation_energy_per_atom": -1.225050608919455,
    "is_stable": true
  },
  "electronic_structure": {
    "band_gap": 2.043,
    "is_metal": false,
    "is_gap_direct": false,
    "cbm": 1.6758000000000002,
    "vbm": -0.3672
  },
  "mechanical_properties": {
    "bulk_modulus": null,
    "shear_modulus": null
  },
  "processing_timestamp": "2025-06-10T23:36:19.661430",
  "local_database_props": {
    "Formula": "H28 Ge1 Na4 O14 Se4",
    "Space Group": "5 (C2)",
    "Property": "trivial (LCEBR)",
    "ICSD_ID": 99,
    "POSCAR_link": "https://www.topologicalquantumchemistry.com/data/nonalloycompounds/SG-5/Mat-99/POSCAR",
    "MatProject_link": "https://legacy.materialsproject.org/materials/icsd/99",
    "Unnamed: 6": NaN
  },
  "num_atoms": 51,
  "file_locations": {
    "structure_hdf5": "structures/mp-721293.h5",
    "point_cloud": "point_clouds/mp-721293_asph.npy",
    "crystal_graph": "graphs/mp-721293/crystal_graph.pkl",
    "kspace_graph_shared": "kspace_topology_graphs/SG_005/kspace_graph.pt",
    "vectorized_features_dir": "vectorized_features/mp-721293"
  },
  "vectorized_methods": [
    "asph_features",
    "band_rep_features",
    "basic_properties",
    "structural_properties",
    "combined_features"
  ],
  "vectorized_feature_sizes": {
    "asph_features": 63,
    "band_rep_features": 4756,
    "basic_properties": 4,
    "structural_properties": 4,
    "combined_features": 4827
  }
}