{
  "jid": "mp-743619",
  "formula": "CoH6C2S2N2O3",
  "normalized_formula": "CoH6C2S2N2O3",
  "space_group": "C2/c",
  "space_group_number": 15,
  "topological_class": "Semimetal",
  "topological_binary": 1.0,
  "band_gap": 1.8544,
  "formation_energy": -0.6828138826562501,
  "energy_above_hull": 0.22456765220051503,
  "density": 1.860838672252064,
  "volume": 408.9578484818832,
  "nsites": 32,
  "total_magnetization": 1.9993509,
  "magnetic_type": "FM",
  "theoretical": null,
  "stability": {
    "energy_above_hull": 0.22456765220051503,
    "formation_energy_per_atom": -0.6828138826562501,
    "is_stable": false
  },
  "electronic_structure": {
    "band_gap": 1.8544,
    "is_metal": false,
    "is_gap_direct": false,
    "cbm": 1.5199,
    "vbm": -0.3345
  },
  "mechanical_properties": {
    "bulk_modulus": null,
    "shear_modulus": null
  },
  "processing_timestamp": "2025-06-10T23:36:16.783075",
  "local_database_props": {
    "Formula": "C2 H6 Co1 N2 O3 S2",
    "Space Group": "15 (C2/c)",
    "Property": "SM (ESFD)",
    "ICSD_ID": 87,
    "POSCAR_link": "https://www.topologicalquantumchemistry.com/data/nonalloycompounds/SG-15/Mat-87/POSCAR",
    "MatProject_link": "https://legacy.materialsproject.org/materials/icsd/87",
    "Unnamed: 6": NaN
  },
  "num_atoms": 32,
  "file_locations": {
    "structure_hdf5": "structures/mp-743619.h5",
    "point_cloud": "point_clouds/mp-743619_asph.npy",
    "crystal_graph": "graphs/mp-743619/crystal_graph.pkl",
    "kspace_graph_shared": "kspace_topology_graphs/SG_015/kspace_graph.pt",
    "vectorized_features_dir": "vectorized_features/mp-743619"
  },
  "vectorized_methods": [
    "asph_features",
    "band_rep_features",
    "basic_properties",
    "structural_properties",
    "combined_features"
  ],
  "vectorized_feature_sizes": {
    "asph_features": 63,
    "band_rep_features": 4756,
    "basic_properties": 4,
    "structural_properties": 4,
    "combined_features": 4827
  }
}