{
  "jid": "mp-905",
  "formula": "LaF3",
  "normalized_formula": "LaF3",
  "space_group": "Unknown",
  "space_group_number": 165,
  "topological_class": "Unknown",
  "topological_binary": 0.0,
  "band_gap": 6.042899999999999,
  "formation_energy": -4.508268510833333,
  "processing_timestamp": "2025-06-10T10:12:06.666864",
  "local_database_props": {},
  "num_atoms": 24,
  "file_locations": {
    "structure_hdf5": "structures/mp-905.h5",
    "poscar": "structures/mp-905_POSCAR",
    "point_cloud": "point_clouds/mp-905_asph.npy",
    "crystal_graph": "graphs/mp-905/crystal_graph.pt",
    "kspace_graph": "graphs/mp-905/kspace_graph.pt"
  }
}